<pdos>
<nspin>2</nspin>
<norbitals>15</norbitals>
<fermi_energy units="eV"> -0.426540379E+01</fermi_energy>
<energy_values units="eV">
 -0.150000000E+02
 -0.149398798E+02
 -0.148797595E+02
 -0.148196393E+02
 -0.147595190E+02
 -0.146993988E+02
 -0.146392786E+02
 -0.145791583E+02
 -0.145190381E+02
 -0.144589178E+02
 -0.143987976E+02
 -0.143386774E+02
 -0.142785571E+02
 -0.142184369E+02
 -0.141583166E+02
 -0.140981964E+02
 -0.140380762E+02
 -0.139779559E+02
 -0.139178357E+02
 -0.138577154E+02
 -0.137975952E+02
 -0.137374749E+02
 -0.136773547E+02
 -0.136172345E+02
 -0.135571142E+02
 -0.134969940E+02
 -0.134368737E+02
 -0.133767535E+02
 -0.133166333E+02
 -0.132565130E+02
 -0.131963928E+02
 -0.131362725E+02
 -0.130761523E+02
 -0.130160321E+02
 -0.129559118E+02
 -0.128957916E+02
 -0.128356713E+02
 -0.127755511E+02
 -0.127154309E+02
 -0.126553106E+02
 -0.125951904E+02
 -0.125350701E+02
 -0.124749499E+02
 -0.124148297E+02
 -0.123547094E+02
 -0.122945892E+02
 -0.122344689E+02
 -0.121743487E+02
 -0.121142285E+02
 -0.120541082E+02
 -0.119939880E+02
 -0.119338677E+02
 -0.118737475E+02
 -0.118136273E+02
 -0.117535070E+02
 -0.116933868E+02
 -0.116332665E+02
 -0.115731463E+02
 -0.115130261E+02
 -0.114529058E+02
 -0.113927856E+02
 -0.113326653E+02
 -0.112725451E+02
 -0.112124248E+02
 -0.111523046E+02
 -0.110921844E+02
 -0.110320641E+02
 -0.109719439E+02
 -0.109118236E+02
 -0.108517034E+02
 -0.107915832E+02
 -0.107314629E+02
 -0.106713427E+02
 -0.106112224E+02
 -0.105511022E+02
 -0.104909820E+02
 -0.104308617E+02
 -0.103707415E+02
 -0.103106212E+02
 -0.102505010E+02
 -0.101903808E+02
 -0.101302605E+02
 -0.100701403E+02
 -0.100100200E+02
 -0.994989980E+01
 -0.988977956E+01
 -0.982965932E+01
 -0.976953908E+01
 -0.970941884E+01
 -0.964929860E+01
 -0.958917836E+01
 -0.952905812E+01
 -0.946893788E+01
 -0.940881764E+01
 -0.934869739E+01
 -0.928857715E+01
 -0.922845691E+01
 -0.916833667E+01
 -0.910821643E+01
 -0.904809619E+01
 -0.898797595E+01
 -0.892785571E+01
 -0.886773547E+01
 -0.880761523E+01
 -0.874749499E+01
 -0.868737475E+01
 -0.862725451E+01
 -0.856713427E+01
 -0.850701403E+01
 -0.844689379E+01
 -0.838677355E+01
 -0.832665331E+01
 -0.826653307E+01
 -0.820641283E+01
 -0.814629259E+01
 -0.808617234E+01
 -0.802605210E+01
 -0.796593186E+01
 -0.790581162E+01
 -0.784569138E+01
 -0.778557114E+01
 -0.772545090E+01
 -0.766533066E+01
 -0.760521042E+01
 -0.754509018E+01
 -0.748496994E+01
 -0.742484970E+01
 -0.736472946E+01
 -0.730460922E+01
 -0.724448898E+01
 -0.718436874E+01
 -0.712424850E+01
 -0.706412826E+01
 -0.700400802E+01
 -0.694388778E+01
 -0.688376754E+01
 -0.682364729E+01
 -0.676352705E+01
 -0.670340681E+01
 -0.664328657E+01
 -0.658316633E+01
 -0.652304609E+01
 -0.646292585E+01
 -0.640280561E+01
 -0.634268537E+01
 -0.628256513E+01
 -0.622244489E+01
 -0.616232465E+01
 -0.610220441E+01
 -0.604208417E+01
 -0.598196393E+01
 -0.592184369E+01
 -0.586172345E+01
 -0.580160321E+01
 -0.574148297E+01
 -0.568136273E+01
 -0.562124248E+01
 -0.556112224E+01
 -0.550100200E+01
 -0.544088176E+01
 -0.538076152E+01
 -0.532064128E+01
 -0.526052104E+01
 -0.520040080E+01
 -0.514028056E+01
 -0.508016032E+01
 -0.502004008E+01
 -0.495991984E+01
 -0.489979960E+01
 -0.483967936E+01
 -0.477955912E+01
 -0.471943888E+01
 -0.465931864E+01
 -0.459919840E+01
 -0.453907816E+01
 -0.447895792E+01
 -0.441883768E+01
 -0.435871743E+01
 -0.429859719E+01
 -0.423847695E+01
 -0.417835671E+01
 -0.411823647E+01
 -0.405811623E+01
 -0.399799599E+01
 -0.393787575E+01
 -0.387775551E+01
 -0.381763527E+01
 -0.375751503E+01
 -0.369739479E+01
 -0.363727455E+01
 -0.357715431E+01
 -0.351703407E+01
 -0.345691383E+01
 -0.339679359E+01
 -0.333667335E+01
 -0.327655311E+01
 -0.321643287E+01
 -0.315631263E+01
 -0.309619238E+01
 -0.303607214E+01
 -0.297595190E+01
 -0.291583166E+01
 -0.285571142E+01
 -0.279559118E+01
 -0.273547094E+01
 -0.267535070E+01
 -0.261523046E+01
 -0.255511022E+01
 -0.249498998E+01
 -0.243486974E+01
 -0.237474950E+01
 -0.231462926E+01
 -0.225450902E+01
 -0.219438878E+01
 -0.213426854E+01
 -0.207414830E+01
 -0.201402806E+01
 -0.195390782E+01
 -0.189378758E+01
 -0.183366733E+01
 -0.177354709E+01
 -0.171342685E+01
 -0.165330661E+01
 -0.159318637E+01
 -0.153306613E+01
 -0.147294589E+01
 -0.141282565E+01
 -0.135270541E+01
 -0.129258517E+01
 -0.123246493E+01
 -0.117234469E+01
 -0.111222445E+01
 -0.105210421E+01
 -0.991983968E+00
 -0.931863727E+00
 -0.871743487E+00
 -0.811623246E+00
 -0.751503006E+00
 -0.691382766E+00
 -0.631262525E+00
 -0.571142285E+00
 -0.511022044E+00
 -0.450901804E+00
 -0.390781563E+00
 -0.330661323E+00
 -0.270541082E+00
 -0.210420842E+00
 -0.150300601E+00
 -0.901803607E-01
 -0.300601202E-01
  0.300601202E-01
  0.901803607E-01
  0.150300601E+00
  0.210420842E+00
  0.270541082E+00
  0.330661323E+00
  0.390781563E+00
  0.450901804E+00
  0.511022044E+00
  0.571142285E+00
  0.631262525E+00
  0.691382766E+00
  0.751503006E+00
  0.811623246E+00
  0.871743487E+00
  0.931863727E+00
  0.991983968E+00
  0.105210421E+01
  0.111222445E+01
  0.117234469E+01
  0.123246493E+01
  0.129258517E+01
  0.135270541E+01
  0.141282565E+01
  0.147294589E+01
  0.153306613E+01
  0.159318637E+01
  0.165330661E+01
  0.171342685E+01
  0.177354709E+01
  0.183366733E+01
  0.189378758E+01
  0.195390782E+01
  0.201402806E+01
  0.207414830E+01
  0.213426854E+01
  0.219438878E+01
  0.225450902E+01
  0.231462926E+01
  0.237474950E+01
  0.243486974E+01
  0.249498998E+01
  0.255511022E+01
  0.261523046E+01
  0.267535070E+01
  0.273547094E+01
  0.279559118E+01
  0.285571142E+01
  0.291583166E+01
  0.297595190E+01
  0.303607214E+01
  0.309619238E+01
  0.315631263E+01
  0.321643287E+01
  0.327655311E+01
  0.333667335E+01
  0.339679359E+01
  0.345691383E+01
  0.351703407E+01
  0.357715431E+01
  0.363727455E+01
  0.369739479E+01
  0.375751503E+01
  0.381763527E+01
  0.387775551E+01
  0.393787575E+01
  0.399799599E+01
  0.405811623E+01
  0.411823647E+01
  0.417835671E+01
  0.423847695E+01
  0.429859719E+01
  0.435871743E+01
  0.441883768E+01
  0.447895792E+01
  0.453907816E+01
  0.459919840E+01
  0.465931864E+01
  0.471943888E+01
  0.477955912E+01
  0.483967936E+01
  0.489979960E+01
  0.495991984E+01
  0.502004008E+01
  0.508016032E+01
  0.514028056E+01
  0.520040080E+01
  0.526052104E+01
  0.532064128E+01
  0.538076152E+01
  0.544088176E+01
  0.550100200E+01
  0.556112224E+01
  0.562124248E+01
  0.568136273E+01
  0.574148297E+01
  0.580160321E+01
  0.586172345E+01
  0.592184369E+01
  0.598196393E+01
  0.604208417E+01
  0.610220441E+01
  0.616232465E+01
  0.622244489E+01
  0.628256513E+01
  0.634268537E+01
  0.640280561E+01
  0.646292585E+01
  0.652304609E+01
  0.658316633E+01
  0.664328657E+01
  0.670340681E+01
  0.676352705E+01
  0.682364729E+01
  0.688376754E+01
  0.694388778E+01
  0.700400802E+01
  0.706412826E+01
  0.712424850E+01
  0.718436874E+01
  0.724448898E+01
  0.730460922E+01
  0.736472946E+01
  0.742484970E+01
  0.748496994E+01
  0.754509018E+01
  0.760521042E+01
  0.766533066E+01
  0.772545090E+01
  0.778557114E+01
  0.784569138E+01
  0.790581162E+01
  0.796593186E+01
  0.802605210E+01
  0.808617234E+01
  0.814629259E+01
  0.820641283E+01
  0.826653307E+01
  0.832665331E+01
  0.838677355E+01
  0.844689379E+01
  0.850701403E+01
  0.856713427E+01
  0.862725451E+01
  0.868737475E+01
  0.874749499E+01
  0.880761523E+01
  0.886773547E+01
  0.892785571E+01
  0.898797595E+01
  0.904809619E+01
  0.910821643E+01
  0.916833667E+01
  0.922845691E+01
  0.928857715E+01
  0.934869739E+01
  0.940881764E+01
  0.946893788E+01
  0.952905812E+01
  0.958917836E+01
  0.964929860E+01
  0.970941884E+01
  0.976953908E+01
  0.982965932E+01
  0.988977956E+01
  0.994989980E+01
  0.100100200E+02
  0.100701403E+02
  0.101302605E+02
  0.101903808E+02
  0.102505010E+02
  0.103106212E+02
  0.103707415E+02
  0.104308617E+02
  0.104909820E+02
  0.105511022E+02
  0.106112224E+02
  0.106713427E+02
  0.107314629E+02
  0.107915832E+02
  0.108517034E+02
  0.109118236E+02
  0.109719439E+02
  0.110320641E+02
  0.110921844E+02
  0.111523046E+02
  0.112124248E+02
  0.112725451E+02
  0.113326653E+02
  0.113927856E+02
  0.114529058E+02
  0.115130261E+02
  0.115731463E+02
  0.116332665E+02
  0.116933868E+02
  0.117535070E+02
  0.118136273E+02
  0.118737475E+02
  0.119338677E+02
  0.119939880E+02
  0.120541082E+02
  0.121142285E+02
  0.121743487E+02
  0.122344689E+02
  0.122945892E+02
  0.123547094E+02
  0.124148297E+02
  0.124749499E+02
  0.125350701E+02
  0.125951904E+02
  0.126553106E+02
  0.127154309E+02
  0.127755511E+02
  0.128356713E+02
  0.128957916E+02
  0.129559118E+02
  0.130160321E+02
  0.130761523E+02
  0.131362725E+02
  0.131963928E+02
  0.132565130E+02
  0.133166333E+02
  0.133767535E+02
  0.134368737E+02
  0.134969940E+02
  0.135571142E+02
  0.136172345E+02
  0.136773547E+02
  0.137374749E+02
  0.137975952E+02
  0.138577154E+02
  0.139178357E+02
  0.139779559E+02
  0.140380762E+02
  0.140981964E+02
  0.141583166E+02
  0.142184369E+02
  0.142785571E+02
  0.143386774E+02
  0.143987976E+02
  0.144589178E+02
  0.145190381E+02
  0.145791583E+02
  0.146392786E+02
  0.146993988E+02
  0.147595190E+02
  0.148196393E+02
  0.148797595E+02
  0.149398798E+02
  0.150000000E+02
</energy_values>
<orbital 
 index="                        1" 
 atom_index="                        1" 
 species="Fe" 
 Z="                       26" 
 position="   0.000000   0.000000   0.000000" 
 n="                        4" 
 l="                        0" 
 m="                        0" 
 z="                        1" 
 P="false" 
>
<data>
   0.000000000E+00   0.000000000E+00
   0.000000000E+00   0.000000000E+00
   0.000000000E+00   0.000000000E+00
   0.000000000E+00   0.000000000E+00
   0.000000000E+00   0.000000000E+00
   0.000000000E+00   0.000000000E+00
   0.000000000E+00   0.000000000E+00
   0.000000000E+00   0.000000000E+00
   0.000000000E+00   0.000000000E+00
   0.000000000E+00   0.000000000E+00
   0.000000000E+00   0.000000000E+00
   0.000000000E+00   0.000000000E+00
   0.000000000E+00   0.000000000E+00
   0.000000000E+00   0.000000000E+00
   0.000000000E+00   0.000000000E+00
   0.000000000E+00   0.000000000E+00
   0.000000000E+00   0.000000000E+00
   0.000000000E+00   0.000000000E+00
   0.000000000E+00   0.000000000E+00
   0.000000000E+00   0.000000000E+00
   0.000000000E+00   0.000000000E+00
   0.000000000E+00   0.000000000E+00
   0.000000000E+00   0.000000000E+00
   0.000000000E+00   0.000000000E+00
   0.000000000E+00   0.000000000E+00
   0.000000000E+00   0.000000000E+00
   0.000000000E+00   0.000000000E+00
   0.000000000E+00   0.000000000E+00
   0.000000000E+00   0.000000000E+00
   0.000000000E+00   0.000000000E+00
   0.000000000E+00   0.000000000E+00
   0.000000000E+00   0.000000000E+00
   0.000000000E+00   0.000000000E+00
   0.000000000E+00   0.000000000E+00
   0.000000000E+00   0.000000000E+00
   0.000000000E+00   0.000000000E+00
   0.000000000E+00   0.000000000E+00
   0.000000000E+00   0.000000000E+00
   0.000000000E+00   0.000000000E+00
   0.000000000E+00   0.000000000E+00
   0.000000000E+00   0.000000000E+00
   0.000000000E+00   0.000000000E+00
   0.000000000E+00   0.000000000E+00
   0.000000000E+00   0.000000000E+00
   0.000000000E+00   0.000000000E+00
   0.000000000E+00   0.000000000E+00
   0.000000000E+00   0.000000000E+00
   0.000000000E+00   0.000000000E+00
   0.000000000E+00   0.000000000E+00
   0.000000000E+00   0.000000000E+00
   0.000000000E+00   0.000000000E+00
   0.000000000E+00   0.000000000E+00
   0.000000000E+00   0.000000000E+00
   0.000000000E+00   0.000000000E+00
   0.000000000E+00   0.000000000E+00
   0.000000000E+00   0.000000000E+00
   0.000000000E+00   0.000000000E+00
   0.000000000E+00   0.000000000E+00
   0.000000000E+00   0.000000000E+00
   0.000000000E+00   0.000000000E+00
   0.000000000E+00   0.000000000E+00
   0.000000000E+00   0.000000000E+00
   0.000000000E+00   0.000000000E+00
   0.000000000E+00   0.000000000E+00
   0.000000000E+00   0.000000000E+00
   0.000000000E+00   0.000000000E+00
   0.000000000E+00   0.000000000E+00
   0.000000000E+00   0.000000000E+00
   0.986973703E-10   0.000000000E+00
   0.954227022E-08   0.000000000E+00
   0.456559106E-06   0.000000000E+00
   0.111571511E-04   0.000000000E+00
   0.142187796E-03   0.000000000E+00
   0.976335758E-03   0.000000000E+00
   0.380806235E-02   0.000000000E+00
   0.917172832E-02   0.624883315E-11
   0.153676729E-01   0.104997059E-08
   0.205294325E-01   0.711990231E-07
   0.244268628E-01   0.244278889E-05
   0.275206792E-01   0.431960508E-04
   0.301297965E-01   0.403901223E-03
   0.324090188E-01   0.208095757E-02
   0.344437571E-01   0.631292967E-02
   0.362883927E-01   0.124766399E-01
   0.379818763E-01   0.183271969E-01
   0.395525407E-01   0.227716743E-01
   0.410223836E-01   0.261072841E-01
   0.424110387E-01   0.287765250E-01
   0.437296728E-01   0.310119036E-01
   0.449972700E-01   0.329307715E-01
   0.462161921E-01   0.346031564E-01
   0.474064790E-01   0.360769092E-01
   0.485680075E-01   0.373841216E-01
   0.497135265E-01   0.385544094E-01
   0.508570276E-01   0.396000327E-01
   0.519845964E-01   0.405499288E-01
   0.531462581E-01   0.413967187E-01
   0.542863624E-01   0.421808296E-01
   0.554949619E-01   0.428721385E-01
   0.566895317E-01   0.435243023E-01
   0.579690924E-01   0.441011493E-01
   0.592686459E-01   0.446310204E-01
   0.606527458E-01   0.451414129E-01
   0.621085268E-01   0.455477996E-01
   0.636540905E-01   0.460160843E-01
   0.653227737E-01   0.463437902E-01
   0.671135414E-01   0.467180909E-01
   0.690788008E-01   0.470703885E-01
   0.712327272E-01   0.472983140E-01
   0.736368954E-01   0.476738642E-01
   0.763450582E-01   0.478865944E-01
   0.794562488E-01   0.481108885E-01
   0.831217220E-01   0.484631143E-01
   0.876465783E-01   0.485607501E-01
   0.936468496E-01   0.488590857E-01
   0.101683960E+00   0.491238184E-01
   0.110313509E+00   0.492178560E-01
   0.115730169E+00   0.495532593E-01
   0.116728390E+00   0.497818807E-01
   0.115969528E+00   0.498906543E-01
   0.110758551E+00   0.503056520E-01
   0.911011431E-01   0.504853512E-01
   0.616049369E-01   0.507082629E-01
   0.459668767E-01   0.511742707E-01
   0.629565925E-01   0.513710103E-01
   0.107587220E+00   0.517901486E-01
   0.149084326E+00   0.522713038E-01
   0.162498650E+00   0.526600941E-01
   0.145707843E+00   0.532591125E-01
   0.107240981E+00   0.539007794E-01
   0.631217498E-01   0.545996016E-01
   0.310075211E-01   0.555052631E-01
   0.167603735E-01   0.565662401E-01
   0.136352354E-01   0.578477928E-01
   0.155733191E-01   0.595807817E-01
   0.201392252E-01   0.619478912E-01
   0.230345827E-01   0.654278409E-01
   0.210976261E-01   0.697700245E-01
   0.170284979E-01   0.729023513E-01
   0.139963394E-01   0.732496601E-01
   0.122530355E-01   0.713475373E-01
   0.112061169E-01   0.687984875E-01
   0.105468104E-01   0.662398013E-01
   0.101680698E-01   0.637672841E-01
   0.100244328E-01   0.614858736E-01
   0.100864202E-01   0.592769274E-01
   0.103509341E-01   0.572657670E-01
   0.107849440E-01   0.553558380E-01
   0.113752449E-01   0.536188570E-01
   0.120850112E-01   0.520283947E-01
   0.128745707E-01   0.505964745E-01
   0.136787149E-01   0.493443088E-01
   0.144544701E-01   0.482624619E-01
   0.151655974E-01   0.473832731E-01
   0.157101053E-01   0.467049783E-01
   0.161447555E-01   0.462558228E-01
   0.164720358E-01   0.460472201E-01
   0.166617992E-01   0.461033582E-01
   0.168591959E-01   0.464398495E-01
   0.170046201E-01   0.470671076E-01
   0.170342511E-01   0.479407245E-01
   0.171142910E-01   0.487153194E-01
   0.171506994E-01   0.480152057E-01
   0.170737390E-01   0.434920716E-01
   0.170998011E-01   0.347326619E-01
   0.170901961E-01   0.246574897E-01
   0.169477794E-01   0.161178430E-01
   0.169209627E-01   0.103170650E-01
   0.169025494E-01   0.742657870E-02
   0.167119479E-01   0.668190671E-02
   0.166263062E-01   0.707987191E-02
   0.166059333E-01   0.799326941E-02
   0.164235750E-01   0.909765593E-02
   0.162510958E-01   0.101912321E-01
   0.162228601E-01   0.111213445E-01
   0.161021313E-01   0.117645074E-01
   0.158575946E-01   0.120302944E-01
   0.157735175E-01   0.118791806E-01
   0.157312299E-01   0.113474572E-01
   0.155166987E-01   0.105674583E-01
   0.152864279E-01   0.978045238E-02
   0.153187448E-01   0.930885148E-02
   0.152079206E-01   0.950216260E-02
   0.150656516E-01   0.103462317E-01
   0.160939093E-01   0.109409634E-01
   0.201089098E-01   0.996508647E-02
   0.278041804E-01   0.767806645E-02
   0.362156789E-01   0.535261875E-02
   0.418243454E-01   0.367447423E-02
   0.446627245E-01   0.308799111E-02
   0.457186767E-01   0.369753427E-02
   0.451554651E-01   0.502108776E-02
   0.444496149E-01   0.627953695E-02
   0.444144341E-01   0.677181346E-02
   0.438681853E-01   0.633646347E-02
   0.423714831E-01   0.710163845E-02
   0.408229601E-01   0.120121081E-01
   0.402502069E-01   0.184021461E-01
   0.401171325E-01   0.217179950E-01
   0.391459646E-01   0.233722023E-01
   0.373818791E-01   0.241073966E-01
   0.359608548E-01   0.200956602E-01
   0.357526968E-01   0.118583630E-01
   0.358196220E-01   0.418237603E-02
   0.348159332E-01  -0.808993490E-03
   0.332052529E-01  -0.367238932E-02
   0.319609298E-01  -0.532406965E-02
   0.316921862E-01  -0.636491884E-02
   0.317912513E-01  -0.710264643E-02
   0.312377264E-01  -0.765900558E-02
   0.301265234E-01  -0.808428822E-02
   0.287691571E-01  -0.841127117E-02
   0.279802643E-01  -0.865648492E-02
   0.280832136E-01  -0.883790291E-02
   0.280931411E-01  -0.895939316E-02
   0.274434273E-01  -0.903836498E-02
   0.262649223E-01  -0.907277602E-02
   0.250722298E-01  -0.906181962E-02
   0.245513136E-01  -0.874761858E-02
   0.247070736E-01  -0.658878634E-02
   0.246040250E-01   0.141838455E-02
   0.238214373E-01   0.165160418E-01
   0.227350950E-01   0.305775437E-01
   0.215725456E-01   0.358304855E-01
   0.208397033E-01   0.342992053E-01
   0.208757680E-01   0.307183728E-01
   0.208842332E-01   0.273315530E-01
   0.201954439E-01   0.245619651E-01
   0.191275123E-01   0.220375171E-01
   0.181269345E-01   0.201764629E-01
   0.174518743E-01   0.189027581E-01
   0.172669087E-01   0.174200804E-01
   0.173652499E-01   0.162084565E-01
   0.171196015E-01   0.158358462E-01
   0.163209776E-01   0.153628272E-01
   0.152489335E-01   0.144114798E-01
   0.144754908E-01   0.139018699E-01
   0.143296129E-01   0.140508189E-01
   0.143609848E-01   0.140029490E-01
   0.141772854E-01   0.134670433E-01
   0.138774204E-01   0.129312490E-01
   0.132031568E-01   0.129726815E-01
   0.121857033E-01   0.134163764E-01
   0.115675457E-01   0.133390287E-01
   0.116787051E-01   0.126345879E-01
   0.118372111E-01   0.121902793E-01
   0.116094448E-01   0.125735188E-01
   0.111814387E-01   0.130064906E-01
   0.105072463E-01   0.127344687E-01
   0.969949192E-02   0.120887326E-01
   0.939625737E-02   0.116340978E-01
   0.953556773E-02   0.118422453E-01
   0.949549850E-02   0.122730117E-01
   0.927629555E-02   0.121138537E-01
   0.910019093E-02   0.115276024E-01
   0.859749447E-02   0.110353952E-01
   0.784237224E-02   0.109181053E-01
   0.788255361E-02   0.110604496E-01
   0.967234770E-02   0.111209260E-01
   0.132061495E-01   0.109633946E-01
   0.170904751E-01   0.105388380E-01
   0.203149694E-01   0.995683799E-02
   0.226522239E-01   0.966333459E-02
   0.235018576E-01   0.978767275E-02
   0.242609698E-01   0.994379387E-02
   0.262960640E-01   0.988702816E-02
   0.276879710E-01   0.942477730E-02
   0.268243854E-01   0.865922005E-02
   0.257114671E-01   0.825267206E-02
   0.269638248E-01   0.847671016E-02
   0.287087173E-01   0.879539298E-02
   0.279575662E-01   0.868813972E-02
   0.257061547E-01   0.816892964E-02
   0.254055263E-01   0.750120629E-02
   0.284275320E-01   0.708246533E-02
   0.309383176E-01   0.718538397E-02
   0.297641540E-01   0.744618167E-02
   0.265376873E-01   0.739242166E-02
   0.250129083E-01   0.703492888E-02
   0.280243097E-01   0.657047297E-02
   0.323432194E-01   0.622376199E-02
   0.323146494E-01   0.618797791E-02
   0.284481862E-01   0.699144571E-02
   0.254538004E-01   0.986126659E-02
   0.276166495E-01   0.149347458E-01
   0.333922456E-01   0.200881253E-01
   0.348024157E-01   0.230997534E-01
   0.303317672E-01   0.237085129E-01
   0.268380955E-01   0.239370614E-01
   0.286416399E-01   0.241511663E-01
   0.332119475E-01   0.235239690E-01
   0.353287932E-01   0.238813976E-01
   0.340400416E-01   0.253913811E-01
   0.326371447E-01   0.249719880E-01
   0.323267822E-01   0.229673021E-01
   0.321520707E-01   0.229556498E-01
   0.335079914E-01   0.254332486E-01
   0.367134277E-01   0.263929389E-01
   0.382588240E-01   0.244678632E-01
   0.370624210E-01   0.229846935E-01
   0.359082151E-01   0.249756073E-01
   0.355297049E-01   0.281079426E-01
   0.356867092E-01   0.274844231E-01
   0.371413358E-01   0.239372077E-01
   0.388976756E-01   0.226066778E-01
   0.392734476E-01   0.267144290E-01
   0.383291838E-01   0.315922419E-01
   0.366220559E-01   0.305114138E-01
   0.351914979E-01   0.256271550E-01
   0.349354740E-01   0.235476242E-01
   0.353972229E-01   0.276945608E-01
   0.357761269E-01   0.334768729E-01
   0.356503294E-01   0.333164788E-01
   0.341897863E-01   0.292777336E-01
   0.317729418E-01   0.282383160E-01
   0.303842415E-01   0.302803542E-01
   0.299215394E-01   0.325217967E-01
   0.296345049E-01   0.347569003E-01
   0.295471019E-01   0.355377481E-01
   0.292735076E-01   0.337858107E-01
   0.281090109E-01   0.324322756E-01
   0.260861833E-01   0.332323929E-01
   0.244961551E-01   0.349180496E-01
   0.239705373E-01   0.368200371E-01
   0.238254227E-01   0.377016985E-01
   0.236642767E-01   0.362844145E-01
   0.232435097E-01   0.344486974E-01
   0.221472533E-01   0.335612250E-01
   0.211421410E-01   0.334695028E-01
   0.203138881E-01   0.343406220E-01
   0.188053372E-01   0.350856730E-01
   0.179518664E-01   0.345778597E-01
   0.184999366E-01   0.329065177E-01
   0.186131838E-01   0.307130717E-01
   0.177470405E-01   0.291541825E-01
   0.166561474E-01   0.286496582E-01
   0.159169842E-01   0.286788181E-01
   0.154854575E-01   0.287794549E-01
   0.147432819E-01   0.286871348E-01
   0.136293552E-01   0.273045505E-01
   0.130180712E-01   0.249616362E-01
   0.137270054E-01   0.236658150E-01
   0.143605342E-01   0.230916410E-01
   0.134321700E-01   0.224199280E-01
   0.121074388E-01   0.222990494E-01
   0.111644625E-01   0.225804654E-01
   0.101997454E-01   0.221031390E-01
   0.977855374E-02   0.206774047E-01
   0.103564592E-01   0.189353353E-01
   0.110333961E-01   0.177233263E-01
   0.107174000E-01   0.174857070E-01
   0.984441797E-02   0.173989313E-01
   0.923319359E-02   0.172752316E-01
   0.839284337E-02   0.172591605E-01
   0.720775943E-02   0.168172963E-01
   0.688215471E-02   0.158934381E-01
   0.766678042E-02   0.145340662E-01
   0.837361128E-02   0.128827167E-01
   0.835798916E-02   0.122754171E-01
   0.774005293E-02   0.133621256E-01
   0.676738688E-02   0.144173459E-01
   0.575148088E-02   0.137060442E-01
   0.492265111E-02   0.122207384E-01
   0.491974449E-02   0.115222262E-01
   0.553363995E-02   0.106885867E-01
   0.559290651E-02   0.948909381E-02
   0.491161657E-02   0.946032646E-02
   0.368030487E-02   0.104310601E-01
   0.228955840E-02   0.108574724E-01
   0.119687230E-02   0.103247801E-01
   0.169797310E-03   0.961657537E-02
  -0.130029741E-03   0.887930153E-02
   0.691050664E-03   0.751516386E-02
   0.123223101E-02   0.642485001E-02
   0.107663905E-02   0.696961913E-02
   0.927442120E-03   0.817549536E-02
   0.693529760E-03   0.857044136E-02
   0.240151742E-03   0.808326318E-02
  -0.925856808E-03   0.713197179E-02
  -0.220344096E-02   0.624653300E-02
  -0.191217550E-02   0.538863646E-02
  -0.676763305E-03   0.475669366E-02
  -0.219785828E-04   0.521223462E-02
  -0.124354453E-02   0.607367424E-02
  -0.444813411E-02   0.633890128E-02
  -0.614862913E-02   0.611065423E-02
  -0.502828466E-02   0.538778482E-02
  -0.350432396E-02   0.461537095E-02
  -0.303914180E-02   0.415463293E-02
  -0.616629554E-02   0.376115857E-02
  -0.118532178E-01   0.413112983E-02
  -0.128543005E-01   0.531548428E-02
  -0.867714364E-02   0.622198207E-02
  -0.578507474E-02   0.645539188E-02
  -0.874372381E-02   0.584547274E-02
  -0.164868538E-01   0.462011752E-02
  -0.228583457E-01   0.375950353E-02
  -0.231835414E-01   0.320137893E-02
  -0.198056513E-01   0.256392646E-02
  -0.179608022E-01   0.250998210E-02
  -0.193535291E-01   0.286681770E-02
  -0.229058662E-01   0.264835963E-02
  -0.255154493E-01   0.185862974E-02
  -0.245253809E-01   0.116582599E-02
  -0.216806654E-01   0.737854805E-03
  -0.199853667E-01   0.428105600E-04
  -0.198721173E-01  -0.151847188E-02
  -0.203443413E-01  -0.246053696E-02
  -0.199693232E-01  -0.180055097E-02
  -0.183843553E-01  -0.111240092E-02
  -0.177229748E-01  -0.223767204E-02
  -0.188264794E-01  -0.527235944E-02
  -0.201688456E-01  -0.732281886E-02
  -0.194160499E-01  -0.680761732E-02
  -0.167850300E-01  -0.546715738E-02
  -0.151297090E-01  -0.696781490E-02
  -0.146657083E-01  -0.137654810E-01
  -0.150319430E-01  -0.196460634E-01
  -0.155644241E-01  -0.193088892E-01
  -0.150403014E-01  -0.186579532E-01
  -0.139704932E-01  -0.222032738E-01
  -0.134849932E-01  -0.281380740E-01
  -0.138849327E-01  -0.321295068E-01
  -0.135714080E-01  -0.304716570E-01
  -0.122127986E-01  -0.256373186E-01
  -0.106630963E-01  -0.234901769E-01
  -0.952235500E-02  -0.252088054E-01
  -0.984613679E-02  -0.266181312E-01
  -0.104156708E-01  -0.257812519E-01
  -0.100357258E-01  -0.248494369E-01
  -0.934328252E-02  -0.247701460E-01
  -0.866729238E-02  -0.247658704E-01
  -0.830763517E-02  -0.235205257E-01
  -0.791422558E-02  -0.214242805E-01
  -0.686831481E-02  -0.205766662E-01
  -0.588967609E-02  -0.216697097E-01
  -0.553512192E-02  -0.221582985E-01
  -0.492145717E-02  -0.204919179E-01
  -0.430922556E-02  -0.194674650E-01
  -0.461174008E-02  -0.197456815E-01
  -0.446989663E-02  -0.189655449E-01
  -0.327030326E-02  -0.171315278E-01
  -0.273946377E-02  -0.162011546E-01
  -0.285852218E-02  -0.162071542E-01
  -0.215412635E-02  -0.159648658E-01
  -0.689212585E-03  -0.159152980E-01
   0.898225279E-04  -0.154082160E-01
   0.721888192E-04  -0.141797955E-01
   0.279628184E-03  -0.134735420E-01
   0.868397568E-03  -0.132795883E-01
   0.114503824E-02  -0.123987536E-01
   0.989540425E-03  -0.108766385E-01
   0.823442447E-03  -0.102901534E-01
   0.906540628E-03  -0.107709356E-01
   0.104977083E-02  -0.104375882E-01
   0.995804765E-03  -0.929126465E-02
   0.112179775E-02  -0.903766949E-02
   0.155125097E-02  -0.910260413E-02
   0.162873793E-02  -0.797804038E-02
   0.114109464E-02  -0.658469580E-02
   0.860290654E-03  -0.628316937E-02
   0.102789582E-02  -0.603512453E-02
   0.109330738E-02  -0.495509591E-02
   0.708106995E-03  -0.435358570E-02
   0.164911719E-03  -0.457214571E-02
   0.202805815E-03  -0.428651592E-02
   0.559795794E-03  -0.338486063E-02
   0.711561954E-03  -0.286685139E-02
   0.594981608E-03  -0.288660488E-02
   0.361237941E-03  -0.238995500E-02
   0.430180802E-03  -0.113090473E-02
   0.671617613E-03  -0.480700923E-03
   0.550635217E-03  -0.849397177E-03
   0.203562252E-03  -0.989704706E-03
  -0.102039871E-04  -0.436867441E-03
   0.241684142E-04  -0.920115444E-04
   0.158596448E-03  -0.533069446E-03
   0.172932128E-03  -0.102081026E-02
   0.159630674E-03  -0.682007651E-03
   0.233335112E-03  -0.193698175E-03
   0.358322672E-03   0.343202158E-04
   0.496276629E-03  -0.996274334E-04
   0.599241393E-03  -0.235008039E-03
   0.584205691E-03   0.861655709E-04
   0.464759721E-03   0.414783592E-03
   0.349735027E-03   0.204900882E-03
   0.299070633E-03  -0.363031419E-03
   0.408451896E-03  -0.597006855E-03
   0.587174829E-03  -0.330649188E-03
   0.602332792E-03  -0.386753621E-04
   0.498234694E-03  -0.113324088E-03
   0.522809919E-03  -0.485043399E-03
   0.834314167E-03  -0.534078787E-03
   0.106641701E-02  -0.519874757E-04
   0.996266672E-03   0.356380422E-03
   0.794339997E-03   0.251306704E-03
   0.652356303E-03  -0.337391623E-03
   0.778052051E-03  -0.648353578E-03
   0.104804306E-02  -0.266064121E-03
   0.107838432E-02  -0.311884087E-04
</data>
</orbital>
<orbital 
 index="                        2" 
 atom_index="                        1" 
 species="Fe" 
 Z="                       26" 
 position="   0.000000   0.000000   0.000000" 
 n="                        4" 
 l="                        0" 
 m="                        0" 
 z="                        2" 
 P="false" 
>
<data>
   0.000000000E+00   0.000000000E+00
   0.000000000E+00   0.000000000E+00
   0.000000000E+00   0.000000000E+00
   0.000000000E+00   0.000000000E+00
   0.000000000E+00   0.000000000E+00
   0.000000000E+00   0.000000000E+00
   0.000000000E+00   0.000000000E+00
   0.000000000E+00   0.000000000E+00
   0.000000000E+00   0.000000000E+00
   0.000000000E+00   0.000000000E+00
   0.000000000E+00   0.000000000E+00
   0.000000000E+00   0.000000000E+00
   0.000000000E+00   0.000000000E+00
   0.000000000E+00   0.000000000E+00
   0.000000000E+00   0.000000000E+00
   0.000000000E+00   0.000000000E+00
   0.000000000E+00   0.000000000E+00
   0.000000000E+00   0.000000000E+00
   0.000000000E+00   0.000000000E+00
   0.000000000E+00   0.000000000E+00
   0.000000000E+00   0.000000000E+00
   0.000000000E+00   0.000000000E+00
   0.000000000E+00   0.000000000E+00
   0.000000000E+00   0.000000000E+00
   0.000000000E+00   0.000000000E+00
   0.000000000E+00   0.000000000E+00
   0.000000000E+00   0.000000000E+00
   0.000000000E+00   0.000000000E+00
   0.000000000E+00   0.000000000E+00
   0.000000000E+00   0.000000000E+00
   0.000000000E+00   0.000000000E+00
   0.000000000E+00   0.000000000E+00
   0.000000000E+00   0.000000000E+00
   0.000000000E+00   0.000000000E+00
   0.000000000E+00   0.000000000E+00
   0.000000000E+00   0.000000000E+00
   0.000000000E+00   0.000000000E+00
   0.000000000E+00   0.000000000E+00
   0.000000000E+00   0.000000000E+00
   0.000000000E+00   0.000000000E+00
   0.000000000E+00   0.000000000E+00
   0.000000000E+00   0.000000000E+00
   0.000000000E+00   0.000000000E+00
   0.000000000E+00   0.000000000E+00
   0.000000000E+00   0.000000000E+00