Executable      : siesta
Version         : 5.0.0
Architecture    : arm64
Compiler version: GNU-15.2.0
Compiler flags  : -fallow-argument-mismatch -O3 -march=native
Parallelisations: MPI
Lua support
DFT-D3 support

Runtime information:
* Directory : /Users/isabella/Documents/Emm-Nano Studies/Computational Physics/Sesions/Fe/convergence_test_spin/08-100
* Running on 8 nodes in parallel.
>> Start of run:  10-DEC-2025  21:13:32

                           *********************** 
                           *  WELCOME TO SIESTA  * 
                           *********************** 

reinit: Reading from file ecut.fdf

reinit: -----------------------------------------------------------------------
reinit: System Name: Fe_Convergence_tests
reinit: -----------------------------------------------------------------------
reinit: System Label: Fe
reinit: -----------------------------------------------------------------------

initatom: Reading input for the pseudopotentials and atomic orbitals ----------
Species number:   1 Atomic number:   26 Label: Fe


---- Processing specs for species: Fe
Ground state valence configuration:   4s02  3d06
Reading pseudopotential information in formatted form from:
  Fe.psf

---- Pseudopotential check for Fe

Pseudopotential generated from a fully relativistic atomic calculation
There are spin-orbit semi-local pseudopotentials available

Pseudized shells:
4s( 2.00) rc: 2.00
4p( 0.00) rc: 2.00
3d( 6.00) rc: 2.00
4f( 0.00) rc: 2.00
Valence configuration for ps generation: (assumed as above)
For Fe, standard SIESTA heuristics set lmxkb to 3
 (one more than the basis l, including polarization orbitals).
Use PS.lmax or PS.KBprojectors blocks to override.

<basis_specs>
===============================================================================
Fe                   Z=  26    Mass=  55.845        Charge= 0.17977+309
Lmxo=2 Lmxkb= 3    BasisType=split      Semic=F
L=0  Nsemic=0  Cnfigmx=4
          i=1  nzeta=2  polorb=1  (4s)  (to be polarized perturbatively)
            splnorm:   0.15000    
               vcte:    40.000    
               rinn:  -0.90000    
               qcoe:    0.0000    
               qyuk:    0.0000    
               qwid:   0.10000E-01
                rcs:    0.0000      0.0000    
            lambdas:    1.0000      1.0000    
L=1  Nsemic=0  Cnfigmx=4
          i=1  nzeta=0  polorb=0  (4p)  (perturbative polarization orbital) (from 4s)
L=2  Nsemic=0  Cnfigmx=3
          i=1  nzeta=2  polorb=0  (3d)
            splnorm:   0.15000    
               vcte:    40.000    
               rinn:  -0.90000    
               qcoe:    0.0000    
               qyuk:    0.0000    
               qwid:   0.10000E-01
                rcs:    0.0000      0.0000    
            lambdas:    1.0000      1.0000    
-------------------------------------------------------------------------------
L=0  Nkbl=1  erefs: 0.17977+309
L=1  Nkbl=1  erefs: 0.17977+309
L=2  Nkbl=1  erefs: 0.17977+309
L=3  Nkbl=1  erefs: 0.17977+309
===============================================================================
</basis_specs>

Using PAO.SplitTailNorm
atom: Called for Fe                    (Z =  26)
Maximum radius (at nrval) set to   50.00000 8518

read_vps: Pseudopotential generation method:
read_vps: ATM3      Troullier-Martins                       
Valence charge in pseudo generation:    8.00000

read_vps: Pseudopotential includes a core correction:
read_vps: Pseudo-core for xc-correction

xc_check: Exchange-correlation functional:
xc_check: GGA Perdew, Burke & Ernzerhof 1996
V l=0 = -2*Zval/r beyond r=  2.7766
V l=1 = -2*Zval/r beyond r=  2.7766
V l=2 = -2*Zval/r beyond r=  2.7766
V l=3 = -2*Zval/r beyond r=  2.7766
All V_l potentials equal beyond r=  1.9874
This should be close to max(r_c) in ps generation
All pots = -2*Zval/r beyond r=  2.7766
Using large-core scheme (fit) for Vlocal

atom: Estimated core radius    2.77662
Fit of Vlocal with continuous 2nd derivative
Fitting vlocal at       1.9934
Choosing vlocal chloc cutoff:  5717  3.026877
qtot up to nchloc:    8.00002973
atom: Maximum radius for chlocal:    3.02688
atom: Maximum radius for r*vlocal+2*Zval:    3.02688

KBgen: Kleinman-Bylander projectors: 
GHOST: No ghost state for L =  0
   l= 0   rc=  1.989365   el= -0.388305   Ekb=  4.170785   kbcos=  0.263545
GHOST: No ghost state for L =  1
   l= 1   rc=  2.019582   el= -0.097543   Ekb=  2.828224   kbcos=  0.193438
GHOST: No ghost state for L =  2
   l= 2   rc=  1.989365   el= -0.553240   Ekb=-12.706376   kbcos= -0.685397
GHOST: No ghost state for L =  3
   l= 3   rc=  1.993368   el=  0.019212   Ekb= -1.694174   kbcos= -0.007043

KBgen: Total number of Kleinman-Bylander projectors:  16
atom: -------------------------------------------------------------------------

atom: SANKEY-TYPE ORBITALS:
atom: Selected multiple-zeta basis: split     

SPLIT: Orbitals with angular momentum L= 0

SPLIT: Basis orbitals for state 4s

SPLIT: PAO cut-off radius determined from an
SPLIT: energy shift=  0.010000 Ry
Split based on tail norm

   izeta = 1
                 lambda =    1.000000
                     rc =    6.940613
                 energy =   -0.376587
                kinetic =    0.328146
    potential(screened) =   -0.704733
       potential(ionic) =   -6.055786

   izeta = 2
                 rmatch =    5.103222
              splitnorm =    0.150000
                 energy =   -0.191392
                kinetic =    0.733902
    potential(screened) =   -0.925295
       potential(ionic) =   -6.842801

SPLIT: Orbitals with angular momentum L= 2

SPLIT: Basis orbitals for state 3d

SPLIT: PAO cut-off radius determined from an
SPLIT: energy shift=  0.010000 Ry
Split based on tail norm

   izeta = 1
                 lambda =    1.000000
                     rc =    4.089356
                 energy =   -0.542300
                kinetic =    9.493519
    potential(screened) =  -10.035820
       potential(ionic) =  -18.843543

   izeta = 2
                 rmatch =    2.572686
              splitnorm =    0.150000
                 energy =   -0.356612
                kinetic =   11.685053
    potential(screened) =  -12.041666
       potential(ionic) =  -21.289274

POLgen: Perturbative polarization orbital with L=  1

POLgen: Polarization orbital for state 4s
Split based on tail norm

   izeta = 1
                     rc =    6.940613
                 energy =   -0.020050
                kinetic =    0.617131
    potential(screened) =   -0.637181
       potential(ionic) =   -5.619750
atom: Total number of Sankey-type orbitals: 15

atm_pop: Valence configuration (for local Pseudopot. screening):
 4s( 2.00)                                                            
 4p( 0.00)                                                            
 3d( 6.00)                                                            
Vna: chval, zval:    8.00000   8.00000

Vna:  Cut-off radius for the neutral-atom potential:   6.940613
comcore: Pseudo-core radius Rcore=  3.744030

atom: _________________________________________________________________________

prinput: Basis input 

PAO.BasisType split     

%block ChemicalSpeciesLabel
    1   26 Fe                      # Species index, atomic number, species label
%endblock ChemicalSpeciesLabel

%block PAO.Basis                 # Define Basis set
# WARNING: This information might be incomplete!
Fe                    2                    # Species label, number of l-shells
 n=4   0   2 P   1                   # n, l, Nzeta, Polarization, NzetaPol
   6.941      5.103   
   1.000      1.000   
 n=3   2   2                         # n, l, Nzeta 
   4.089      2.573   
   1.000      1.000   
%endblock PAO.Basis

prinput: ----------------------------------------------------------------------

coor:   Atomic-coordinates input format  =     Fractional

siesta: Atomic coordinates (Bohr) and species
siesta:      0.00000   0.00000   0.00000  1        1

siesta: System type = bulk      

initatomlists: Number of atoms, orbitals, and projectors:      1    15    16

siesta: ******************** Simulation parameters ****************************
siesta:
siesta: The following are some of the parameters of the simulation.
siesta: A complete list of the parameters used, including default values,
siesta: can be found in file out.fdf
siesta:
redata: Spin configuration                          = collinear
redata: Number of spin components                   = 2
redata: Time-Reversal Symmetry                      = T
redata: Spin spiral                                 = F
redata: Long output                                 =   F
redata: Number of Atomic Species                    =        1
redata: Charge density info will appear in .RHO file
redata: Write Mulliken Pop.                         = NO
redata: Matel table size (NRTAB)                    =     1024
redata: Mesh Cutoff                                 =   100.0000 Ry
redata: Net charge of the system                    =     0.0000 |e|
redata: Min. number of SCF Iter                     =        0
redata: Max. number of SCF Iter                     =      200
redata: SCF convergence failure will abort job
redata: SCF mix quantity                            = Hamiltonian
redata: Mix DM or H after convergence               =   F
redata: Recompute H after scf cycle                 =   F
redata: Mix DM in first SCF step                    =   T
redata: Write Pulay info on disk                    =   F
redata: New DM Occupancy tolerance                  = 0.000000000001
redata: No kicks to SCF
redata: DM Mixing Weight for Kicks                  =     0.5000
redata: Require Harris convergence for SCF          =   F
redata: Harris energy tolerance for SCF             =     0.000100 eV
redata: Require DM convergence for SCF              =   T
redata: DM tolerance for SCF                        =     0.000001
redata: Require EDM convergence for SCF             =   F
redata: EDM tolerance for SCF                       =     0.001000 eV
redata: Require H convergence for SCF               =   T
redata: Hamiltonian tolerance for SCF               =     0.001000 eV
redata: Require (free) Energy convergence for SCF   =   F
redata: (free) Energy tolerance for SCF             =     0.000100 eV
redata: Antiferro initial spin density              =   F
redata: Using DFT-D3 dispersion                     =   F
redata: Using Saved Data (generic)                  =   F
redata: Use continuation files for DM               =   T
redata: Neglect nonoverlap interactions             =   F
redata: Method of Calculation                       = Diagonalization
redata: Electronic Temperature                      =   299.9863 K
redata: Fix the spin of the system                  =   F
redata: Max. number of TDED Iter                    =        1
redata: Number of TDED substeps                     =        3
redata: Dynamics option                             = Single-point calculation
mix.SCF: Pulay mixing                            = Pulay
mix.SCF:    Variant                              = stable
mix.SCF:    History steps                        = 5
mix.SCF:    Linear mixing weight                 =     0.050000
mix.SCF:    Mixing weight                        =     0.050000
mix.SCF:    SVD condition                        = 0.1000E-07
mix.SCF: Spin-component mixing                   all
redata: ***********************************************************************

%block SCF.Mixers
  Pulay
%endblock SCF.Mixers

%block SCF.Mixer.Pulay
  # Mixing method
  method pulay
  variant stable

  # Mixing options
  weight 0.0500
  weight.linear 0.0500
  history 5
%endblock SCF.Mixer.Pulay

DM_history_depth set to one: no extrapolation allowed by default for geometry relaxation
Size of DM history Fstack: 1
Total number of electrons:     8.000000
Total ionic charge:     8.000000

* ProcessorY, Blocksize:    4   2


* Orbital distribution balance (max,min):     2     1

k-point displ. along   1 input, could be:     0.00    0.50
k-point displ. along   2 input, could be:     0.00    0.50
k-point displ. along   3 input, could be:     0.00    0.50
 Kpoints in:          320 . Kpoints trimmed:          296

siesta: k-grid: Number of k-points = 296
siesta: k-points from Monkhorst-Pack grid
siesta: k-cutoff (effective) =    11.452 Ang
siesta: k-point supercell and displacements
siesta: k-grid:     8     0     0      0.000
siesta: k-grid:     0     8     0      0.000
siesta: k-grid:     0     0     8      0.000

diag: Algorithm                                     = D&C
diag: Parallel over k                               =   T
diag: Use parallel 2D distribution                  =   T
diag: Parallel block-size                           = 2
diag: Parallel distribution                         =     2 x     4
diag: Used triangular part                          = Lower
diag: Absolute tolerance                            =  0.100E-15
diag: Orthogonalization factor                      =  0.100E-05
diag: Memory factor                                 =  1.0000

superc: Internal auxiliary supercell:     5 x     5 x     5  =     125
superc: Number of atoms, orbitals, and projectors:    125   1875   2000


ts: **************************************************************
ts: Save H and S matrices                           =    F
ts: Save DM and EDM matrices                        =    F
ts: Only save the overlap matrix S                  =    F
ts: **************************************************************

************************ Begin: TS CHECKS AND WARNINGS ************************
************************ End: TS CHECKS AND WARNINGS **************************


                     ====================================
                        Single-point calculation
                     ====================================

superc: Internal auxiliary supercell:     5 x     5 x     5  =     125
superc: Number of atoms, orbitals, and projectors:    125   1875   2000

outcell: Unit cell vectors (Ang):
        2.863036    0.000000    0.000000
        0.000000    2.863036    0.000000
        0.000000    0.000000    2.863036

outcell: Cell vector modules (Ang)   :    2.863036    2.863036    2.863036
outcell: Cell angles (23,13,12) (deg):     90.0000     90.0000     90.0000
outcell: Cell volume (Ang**3)        :     23.4682
<dSpData1D:S at geom step 0
  <sparsity:sparsity for geom step 0
    nrows_g=15 nrows=2 sparsity=5.9111 nnzs=1330, refcount: 7>
  <dData1D:(new from dSpData1D) n=1330, refcount: 1>
refcount: 1>
new_DM -- step:     1
Initializing Density Matrix...

Attempting to read DM from file... Failed...
DM filled with atomic data:
<dSpData2D:DM initialized from atoms
  <sparsity:sparsity for geom step 0
    nrows_g=15 nrows=2 sparsity=5.9111 nnzs=1330, refcount: 8>
  <dData2D:DM n=1330 m=2, refcount: 1>
refcount: 1>
     spin moment: {S} , |S| = {        0.0        0.0    4.00000 }     4.00000
No. of atoms with KB's overlaping orbs in proc 0. Max # of overlaps:      19     123

InitMesh: MESH = 18 x 18 x 18 = 5832
InitMesh: Mesh cutoff (required, used) =   100.000   109.243 Ry
New grid distribution [1]: sub = 2
New grid distribution [2]: sub = 2
New grid distribution [3]: sub = 2
Setting up quadratic distribution...

stepf: Fermi-Dirac step function

siesta: Program's energy decomposition (eV):
siesta: Ebs     =       -62.166300
siesta: Eions   =       700.430376
siesta: Ena     =        21.833414
siesta: Ekin    =       753.036377
siesta: Enl     =      -473.828642
siesta: Eso     =         0.000000
siesta: Edftu   =         0.000000
siesta: DEna    =         4.634148
siesta: DUscf   =         0.350543
siesta: DUext   =         0.000000
siesta: Ex      =      -363.497049
siesta: Ec      =       -22.070475
siesta: Exc     =      -385.567523
siesta: EbV     =         0.000000
siesta: eta*DQ  =         0.000000
siesta: Emadel  =         0.000000
siesta: Emeta   =         0.000000
siesta: Emolmec =         0.000000
siesta: Ekinion =         0.000000
siesta: Eharris =      -780.996792
siesta: Etot    =      -779.972059
siesta: FreeEng =      -779.977169

        iscf     Eharris(eV)        E_KS(eV)     FreeEng(eV)     dDmax    Ef(eV) dHmax(eV)
   scf:    1     -780.996792     -779.972059     -779.977169  0.804430 -3.521991  2.914098
     spin moment: {S} , |S| = {        0.0        0.0    3.51323 }     3.51323
timer: Routine,Calls,Time,% = IterSCF        1       1.188  50.33
   scf:    2     -780.099012     -780.037301     -780.042800  0.010185 -3.607462  2.496688
     spin moment: {S} , |S| = {        0.0        0.0    3.48996 }     3.48996
   scf:    3     -780.297076     -780.212421     -780.219357  0.049957 -4.065690  0.438638
     spin moment: {S} , |S| = {        0.0        0.0    3.37847 }     3.37847
   scf:    4     -780.280400     -780.246110     -780.250857  0.047955 -4.074135  0.647360
     spin moment: {S} , |S| = {        0.0        0.0    3.32318 }     3.32318
   scf:    5     -780.298720     -780.269877     -780.273962  0.100017 -4.367149  0.293542
     spin moment: {S} , |S| = {        0.0        0.0    3.21843 }     3.21843
   scf:    6     -780.255618     -780.262892     -780.266081  0.020551 -4.416498  0.547845
     spin moment: {S} , |S| = {        0.0        0.0    3.18795 }     3.18795
   scf:    7     -780.183402     -780.225596     -780.231312  0.131307 -3.972467  1.028836
     spin moment: {S} , |S| = {        0.0        0.0    3.33867 }     3.33867
   scf:    8     -780.284383     -780.261911     -780.265107  0.119766 -4.406784  0.627891
     spin moment: {S} , |S| = {        0.0        0.0    3.21440 }     3.21440
   scf:    9     -780.275413     -780.271426     -780.276168  0.020666 -4.266579  0.042848
     spin moment: {S} , |S| = {        0.0        0.0    3.25226 }     3.25226
   scf:   10     -780.271167     -780.271322     -780.276051  0.002990 -4.278140  0.092165
     spin moment: {S} , |S| = {        0.0        0.0    3.24402 }     3.24402
   scf:   11     -780.271425     -780.271493     -780.276231  0.003311 -4.265974  0.043117
     spin moment: {S} , |S| = {        0.0        0.0    3.23791 }     3.23791
   scf:   12     -780.271449     -780.271473     -780.276279  0.001144 -4.265076  0.019825
     spin moment: {S} , |S| = {        0.0        0.0    3.24022 }     3.24022
   scf:   13     -780.271339     -780.271406     -780.276297  0.001015 -4.263905  0.003773
     spin moment: {S} , |S| = {        0.0        0.0    3.24412 }     3.24412
   scf:   14     -780.271394     -780.271400     -780.276297  0.000121 -4.264268  0.002211
     spin moment: {S} , |S| = {        0.0        0.0    3.24432 }     3.24432
   scf:   15     -780.271387     -780.271393     -780.276297  0.000152 -4.264432  0.002125
     spin moment: {S} , |S| = {        0.0        0.0    3.24438 }     3.24438
   scf:   16     -780.271380     -780.271387     -780.276297  0.000178 -4.264393  0.001787
     spin moment: {S} , |S| = {        0.0        0.0    3.24444 }     3.24444
   scf:   17     -780.271382     -780.271384     -780.276297  0.000115 -4.264226  0.001418
     spin moment: {S} , |S| = {        0.0        0.0    3.24448 }     3.24448
   scf:   18     -780.271402     -780.271393     -780.276298  0.000109 -4.264424  0.001244
     spin moment: {S} , |S| = {        0.0        0.0    3.24428 }     3.24428
   scf:   19     -780.271395     -780.271394     -780.276298  0.000026 -4.264466  0.001177
     spin moment: {S} , |S| = {        0.0        0.0    3.24428 }     3.24428
   scf:   20     -780.271381     -780.271387     -780.276299  0.000309 -4.264609  0.000231
     spin moment: {S} , |S| = {        0.0        0.0    3.24516 }     3.24516
   scf:   21     -780.271389     -780.271388     -780.276299  0.000022 -4.264600  0.000242
     spin moment: {S} , |S| = {        0.0        0.0    3.24517 }     3.24517
   scf:   22     -780.271388     -780.271388     -780.276299  0.000009 -4.264600  0.000236
     spin moment: {S} , |S| = {        0.0        0.0    3.24517 }     3.24517
   scf:   23     -780.271387     -780.271388     -780.276299  0.000008 -4.264531  0.000199
     spin moment: {S} , |S| = {        0.0        0.0    3.24517 }     3.24517
   scf:   24     -780.271390     -780.271389     -780.276299  0.000026 -4.264537  0.000192
     spin moment: {S} , |S| = {        0.0        0.0    3.24516 }     3.24516
   scf:   25     -780.271390     -780.271389     -780.276299  0.000018 -4.264542  0.000169
     spin moment: {S} , |S| = {        0.0        0.0    3.24516 }     3.24516
   scf:   26     -780.271389     -780.271389     -780.276299  0.000016 -4.264536  0.000127
     spin moment: {S} , |S| = {        0.0        0.0    3.24520 }     3.24520
   scf:   27     -780.271388     -780.271389     -780.276299  0.000010 -4.264528  0.000115
     spin moment: {S} , |S| = {        0.0        0.0    3.24521 }     3.24521
   scf:   28     -780.271389     -780.271389     -780.276299  0.000001 -4.264528  0.000107
     spin moment: {S} , |S| = {        0.0        0.0    3.24521 }     3.24521
   scf:   29     -780.271390     -780.271390     -780.276299  0.000023 -4.264529  0.000053
     spin moment: {S} , |S| = {        0.0        0.0    3.24519 }     3.24519
   scf:   30     -780.271389     -780.271389     -780.276299  0.000002 -4.264525  0.000050
     spin moment: {S} , |S| = {        0.0        0.0    3.24519 }     3.24519
   scf:   31     -780.271389     -780.271389     -780.276299  0.000006 -4.264520  0.000056
     spin moment: {S} , |S| = {        0.0        0.0    3.24518 }     3.24518
   scf:   32     -780.271389     -780.271389     -780.276299  0.000001 -4.264520  0.000054
     spin moment: {S} , |S| = {        0.0        0.0    3.24518 }     3.24518
   scf:   33     -780.271390     -780.271390     -780.276299  0.000014 -4.264502  0.000035
     spin moment: {S} , |S| = {        0.0        0.0    3.24517 }     3.24517
   scf:   34     -780.271390     -780.271390     -780.276299  0.000001 -4.264498  0.000033
     spin moment: {S} , |S| = {        0.0        0.0    3.24518 }     3.24518

SCF Convergence by DM+H criterion
max |DM_out - DM_in|         :     0.0000007972
max |H_out - H_in|      (eV) :     0.0000330501
SCF cycle converged after 34 iterations

Using DM_out to compute the final energy and forces
No. of atoms with KB's overlaping orbs in proc 0. Max # of overlaps:      19     123

siesta: E_KS(eV) =             -780.2714

siesta: E_KS - E_eggbox =      -780.2714
     spin moment: {S} , |S| = {        0.0        0.0    3.24518 }     3.24518

siesta: Atomic forces (eV/Ang):
----------------------------------------
   Tot    0.000000    0.000000    0.000000
----------------------------------------
   Max    0.000000
   Res    0.000000    sqrt( Sum f_i^2 / 3N )
----------------------------------------
   Max    0.000000    constrained

Stress tensor Voigt[x,y,z,yz,xz,xy] (kbar):      192.33      192.33      192.33        0.00        0.00       -0.00
(Free)E + p*V (eV/cell)     -783.0935
Target enthalpy (eV/cell)     -780.2763

siesta: Program's energy decomposition (eV):
siesta: Ebs     =       -52.543205
siesta: Eions   =       700.430376
siesta: Ena     =        21.833414
siesta: Ekin    =       778.405079
siesta: Enl     =      -492.384399
siesta: Eso     =         0.000000
siesta: Edftu   =         0.000000
siesta: DEna    =         1.199922
siesta: DUscf   =         0.166032
siesta: DUext   =         0.000000
siesta: Ex      =      -366.924599
siesta: Ec      =       -22.136463
siesta: Exc     =      -389.061062
siesta: EbV     =         0.000000
siesta: eta*DQ  =         0.000000
siesta: Emadel  =         0.000000
siesta: Emeta   =         0.000000
siesta: Emolmec =         0.000000
siesta: Ekinion =         0.000000
siesta: Eharris =      -780.271390
siesta: Etot    =      -780.271390
siesta: FreeEng =      -780.276299

siesta: Final energy (eV):
siesta:  Band Struct. =     -52.543205
siesta:       Kinetic =     778.405079
siesta:       Hartree =     148.901832
siesta:         Edftu =       0.000000
siesta:       Eso     =       0.000000
siesta:    Ext. field =       0.000000
siesta:         Exch. =    -366.924599
siesta:         Corr. =     -22.136463
siesta:     Bulk bias =       0.000000
siesta:   Exch.-corr. =    -389.061062
siesta:  Ion-electron =    -941.759546
siesta:       Ion-ion =    -376.757693
siesta:       Ekinion =       0.000000
siesta: D3 dispersion =       0.000000
siesta:         Total =    -780.271390
siesta:         Fermi =      -4.264498

siesta: Stress tensor (static) (eV/Ang**3):
siesta:     0.120043   -0.000000    0.000000
siesta:    -0.000000    0.120043   -0.000000
siesta:     0.000000    0.000000    0.120043

siesta: Cell volume =         23.468235 Ang**3

siesta: Pressure (static):
siesta:                Solid            Molecule  Units
siesta:          -0.00130743         -0.00130743  Ry/Bohr**3
siesta:          -0.12004308         -0.12004308  eV/Ang**3
siesta:        -192.33021292       -192.33021292  kBar
(Free)E+ p_basis*V_orbitals  =        -779.589013
(Free)Eharris+ p_basis*V_orbitals  =        -779.589013
     spin moment: {S} , |S| = {        0.0        0.0    3.24518 }     3.24518

cite: Please see "Fe.bib" for an exhaustive BiBTeX file.
cite: Please clearly indicate Siesta version in published work: 5.0.0
cite: This calculation has made use of the following articles
cite: which are encouraged to be cited in a published work.
        Primary SIESTA paper
          DOI: www.doi.org/10.1088/0953-8984/14/11/302


>> End of run:  10-DEC-2025  21:14:18
Job completed
