<pdos>
<nspin>1</nspin>
<norbitals>15</norbitals>
<fermi_energy units="eV"> -0.483947781E+01</fermi_energy>
<energy_values units="eV">
 -0.150000000E+02
 -0.149398798E+02
 -0.148797595E+02
 -0.148196393E+02
 -0.147595190E+02
 -0.146993988E+02
 -0.146392786E+02
 -0.145791583E+02
 -0.145190381E+02
 -0.144589178E+02
 -0.143987976E+02
 -0.143386774E+02
 -0.142785571E+02
 -0.142184369E+02
 -0.141583166E+02
 -0.140981964E+02
 -0.140380762E+02
 -0.139779559E+02
 -0.139178357E+02
 -0.138577154E+02
 -0.137975952E+02
 -0.137374749E+02
 -0.136773547E+02
 -0.136172345E+02
 -0.135571142E+02
 -0.134969940E+02
 -0.134368737E+02
 -0.133767535E+02
 -0.133166333E+02
 -0.132565130E+02
 -0.131963928E+02
 -0.131362725E+02
 -0.130761523E+02
 -0.130160321E+02
 -0.129559118E+02
 -0.128957916E+02
 -0.128356713E+02
 -0.127755511E+02
 -0.127154309E+02
 -0.126553106E+02
 -0.125951904E+02
 -0.125350701E+02
 -0.124749499E+02
 -0.124148297E+02
 -0.123547094E+02
 -0.122945892E+02
 -0.122344689E+02
 -0.121743487E+02
 -0.121142285E+02
 -0.120541082E+02
 -0.119939880E+02
 -0.119338677E+02
 -0.118737475E+02
 -0.118136273E+02
 -0.117535070E+02
 -0.116933868E+02
 -0.116332665E+02
 -0.115731463E+02
 -0.115130261E+02
 -0.114529058E+02
 -0.113927856E+02
 -0.113326653E+02
 -0.112725451E+02
 -0.112124248E+02
 -0.111523046E+02
 -0.110921844E+02
 -0.110320641E+02
 -0.109719439E+02
 -0.109118236E+02
 -0.108517034E+02
 -0.107915832E+02
 -0.107314629E+02
 -0.106713427E+02
 -0.106112224E+02
 -0.105511022E+02
 -0.104909820E+02
 -0.104308617E+02
 -0.103707415E+02
 -0.103106212E+02
 -0.102505010E+02
 -0.101903808E+02
 -0.101302605E+02
 -0.100701403E+02
 -0.100100200E+02
 -0.994989980E+01
 -0.988977956E+01
 -0.982965932E+01
 -0.976953908E+01
 -0.970941884E+01
 -0.964929860E+01
 -0.958917836E+01
 -0.952905812E+01
 -0.946893788E+01
 -0.940881764E+01
 -0.934869739E+01
 -0.928857715E+01
 -0.922845691E+01
 -0.916833667E+01
 -0.910821643E+01
 -0.904809619E+01
 -0.898797595E+01
 -0.892785571E+01
 -0.886773547E+01
 -0.880761523E+01
 -0.874749499E+01
 -0.868737475E+01
 -0.862725451E+01
 -0.856713427E+01
 -0.850701403E+01
 -0.844689379E+01
 -0.838677355E+01
 -0.832665331E+01
 -0.826653307E+01
 -0.820641283E+01
 -0.814629259E+01
 -0.808617234E+01
 -0.802605210E+01
 -0.796593186E+01
 -0.790581162E+01
 -0.784569138E+01
 -0.778557114E+01
 -0.772545090E+01
 -0.766533066E+01
 -0.760521042E+01
 -0.754509018E+01
 -0.748496994E+01
 -0.742484970E+01
 -0.736472946E+01
 -0.730460922E+01
 -0.724448898E+01
 -0.718436874E+01
 -0.712424850E+01
 -0.706412826E+01
 -0.700400802E+01
 -0.694388778E+01
 -0.688376754E+01
 -0.682364729E+01
 -0.676352705E+01
 -0.670340681E+01
 -0.664328657E+01
 -0.658316633E+01
 -0.652304609E+01
 -0.646292585E+01
 -0.640280561E+01
 -0.634268537E+01
 -0.628256513E+01
 -0.622244489E+01
 -0.616232465E+01
 -0.610220441E+01
 -0.604208417E+01
 -0.598196393E+01
 -0.592184369E+01
 -0.586172345E+01
 -0.580160321E+01
 -0.574148297E+01
 -0.568136273E+01
 -0.562124248E+01
 -0.556112224E+01
 -0.550100200E+01
 -0.544088176E+01
 -0.538076152E+01
 -0.532064128E+01
 -0.526052104E+01
 -0.520040080E+01
 -0.514028056E+01
 -0.508016032E+01
 -0.502004008E+01
 -0.495991984E+01
 -0.489979960E+01
 -0.483967936E+01
 -0.477955912E+01
 -0.471943888E+01
 -0.465931864E+01
 -0.459919840E+01
 -0.453907816E+01
 -0.447895792E+01
 -0.441883768E+01
 -0.435871743E+01
 -0.429859719E+01
 -0.423847695E+01
 -0.417835671E+01
 -0.411823647E+01
 -0.405811623E+01
 -0.399799599E+01
 -0.393787575E+01
 -0.387775551E+01
 -0.381763527E+01
 -0.375751503E+01
 -0.369739479E+01
 -0.363727455E+01
 -0.357715431E+01
 -0.351703407E+01
 -0.345691383E+01
 -0.339679359E+01
 -0.333667335E+01
 -0.327655311E+01
 -0.321643287E+01
 -0.315631263E+01
 -0.309619238E+01
 -0.303607214E+01
 -0.297595190E+01
 -0.291583166E+01
 -0.285571142E+01
 -0.279559118E+01
 -0.273547094E+01
 -0.267535070E+01
 -0.261523046E+01
 -0.255511022E+01
 -0.249498998E+01
 -0.243486974E+01
 -0.237474950E+01
 -0.231462926E+01
 -0.225450902E+01
 -0.219438878E+01
 -0.213426854E+01
 -0.207414830E+01
 -0.201402806E+01
 -0.195390782E+01
 -0.189378758E+01
 -0.183366733E+01
 -0.177354709E+01
 -0.171342685E+01
 -0.165330661E+01
 -0.159318637E+01
 -0.153306613E+01
 -0.147294589E+01
 -0.141282565E+01
 -0.135270541E+01
 -0.129258517E+01
 -0.123246493E+01
 -0.117234469E+01
 -0.111222445E+01
 -0.105210421E+01
 -0.991983968E+00
 -0.931863727E+00
 -0.871743487E+00
 -0.811623246E+00
 -0.751503006E+00
 -0.691382766E+00
 -0.631262525E+00
 -0.571142285E+00
 -0.511022044E+00
 -0.450901804E+00
 -0.390781563E+00
 -0.330661323E+00
 -0.270541082E+00
 -0.210420842E+00
 -0.150300601E+00
 -0.901803607E-01
 -0.300601202E-01
  0.300601202E-01
  0.901803607E-01
  0.150300601E+00
  0.210420842E+00
  0.270541082E+00
  0.330661323E+00
  0.390781563E+00
  0.450901804E+00
  0.511022044E+00
  0.571142285E+00
  0.631262525E+00
  0.691382766E+00
  0.751503006E+00
  0.811623246E+00
  0.871743487E+00
  0.931863727E+00
  0.991983968E+00
  0.105210421E+01
  0.111222445E+01
  0.117234469E+01
  0.123246493E+01
  0.129258517E+01
  0.135270541E+01
  0.141282565E+01
  0.147294589E+01
  0.153306613E+01
  0.159318637E+01
  0.165330661E+01
  0.171342685E+01
  0.177354709E+01
  0.183366733E+01
  0.189378758E+01
  0.195390782E+01
  0.201402806E+01
  0.207414830E+01
  0.213426854E+01
  0.219438878E+01
  0.225450902E+01
  0.231462926E+01
  0.237474950E+01
  0.243486974E+01
  0.249498998E+01
  0.255511022E+01
  0.261523046E+01
  0.267535070E+01
  0.273547094E+01
  0.279559118E+01
  0.285571142E+01
  0.291583166E+01
  0.297595190E+01
  0.303607214E+01
  0.309619238E+01
  0.315631263E+01
  0.321643287E+01
  0.327655311E+01
  0.333667335E+01
  0.339679359E+01
  0.345691383E+01
  0.351703407E+01
  0.357715431E+01
  0.363727455E+01
  0.369739479E+01
  0.375751503E+01
  0.381763527E+01
  0.387775551E+01
  0.393787575E+01
  0.399799599E+01
  0.405811623E+01
  0.411823647E+01
  0.417835671E+01
  0.423847695E+01
  0.429859719E+01
  0.435871743E+01
  0.441883768E+01
  0.447895792E+01
  0.453907816E+01
  0.459919840E+01
  0.465931864E+01
  0.471943888E+01
  0.477955912E+01
  0.483967936E+01
  0.489979960E+01
  0.495991984E+01
  0.502004008E+01
  0.508016032E+01
  0.514028056E+01
  0.520040080E+01
  0.526052104E+01
  0.532064128E+01
  0.538076152E+01
  0.544088176E+01
  0.550100200E+01
  0.556112224E+01
  0.562124248E+01
  0.568136273E+01
  0.574148297E+01
  0.580160321E+01
  0.586172345E+01
  0.592184369E+01
  0.598196393E+01
  0.604208417E+01
  0.610220441E+01
  0.616232465E+01
  0.622244489E+01
  0.628256513E+01
  0.634268537E+01
  0.640280561E+01
  0.646292585E+01
  0.652304609E+01
  0.658316633E+01
  0.664328657E+01
  0.670340681E+01
  0.676352705E+01
  0.682364729E+01
  0.688376754E+01
  0.694388778E+01
  0.700400802E+01
  0.706412826E+01
  0.712424850E+01
  0.718436874E+01
  0.724448898E+01
  0.730460922E+01
  0.736472946E+01
  0.742484970E+01
  0.748496994E+01
  0.754509018E+01
  0.760521042E+01
  0.766533066E+01
  0.772545090E+01
  0.778557114E+01
  0.784569138E+01
  0.790581162E+01
  0.796593186E+01
  0.802605210E+01
  0.808617234E+01
  0.814629259E+01
  0.820641283E+01
  0.826653307E+01
  0.832665331E+01
  0.838677355E+01
  0.844689379E+01
  0.850701403E+01
  0.856713427E+01
  0.862725451E+01
  0.868737475E+01
  0.874749499E+01
  0.880761523E+01
  0.886773547E+01
  0.892785571E+01
  0.898797595E+01
  0.904809619E+01
  0.910821643E+01
  0.916833667E+01
  0.922845691E+01
  0.928857715E+01
  0.934869739E+01
  0.940881764E+01
  0.946893788E+01
  0.952905812E+01
  0.958917836E+01
  0.964929860E+01
  0.970941884E+01
  0.976953908E+01
  0.982965932E+01
  0.988977956E+01
  0.994989980E+01
  0.100100200E+02
  0.100701403E+02
  0.101302605E+02
  0.101903808E+02
  0.102505010E+02
  0.103106212E+02
  0.103707415E+02
  0.104308617E+02
  0.104909820E+02
  0.105511022E+02
  0.106112224E+02
  0.106713427E+02
  0.107314629E+02
  0.107915832E+02
  0.108517034E+02
  0.109118236E+02
  0.109719439E+02
  0.110320641E+02
  0.110921844E+02
  0.111523046E+02
  0.112124248E+02
  0.112725451E+02
  0.113326653E+02
  0.113927856E+02
  0.114529058E+02
  0.115130261E+02
  0.115731463E+02
  0.116332665E+02
  0.116933868E+02
  0.117535070E+02
  0.118136273E+02
  0.118737475E+02
  0.119338677E+02
  0.119939880E+02
  0.120541082E+02
  0.121142285E+02
  0.121743487E+02
  0.122344689E+02
  0.122945892E+02
  0.123547094E+02
  0.124148297E+02
  0.124749499E+02
  0.125350701E+02
  0.125951904E+02
  0.126553106E+02
  0.127154309E+02
  0.127755511E+02
  0.128356713E+02
  0.128957916E+02
  0.129559118E+02
  0.130160321E+02
  0.130761523E+02
  0.131362725E+02
  0.131963928E+02
  0.132565130E+02
  0.133166333E+02
  0.133767535E+02
  0.134368737E+02
  0.134969940E+02
  0.135571142E+02
  0.136172345E+02
  0.136773547E+02
  0.137374749E+02
  0.137975952E+02
  0.138577154E+02
  0.139178357E+02
  0.139779559E+02
  0.140380762E+02
  0.140981964E+02
  0.141583166E+02
  0.142184369E+02
  0.142785571E+02
  0.143386774E+02
  0.143987976E+02
  0.144589178E+02
  0.145190381E+02
  0.145791583E+02
  0.146392786E+02
  0.146993988E+02
  0.147595190E+02
  0.148196393E+02
  0.148797595E+02
  0.149398798E+02
  0.150000000E+02
</energy_values>
<orbital 
 index="                        1" 
 atom_index="                        1" 
 species="Fe" 
 Z="                       26" 
 position="   0.000000   0.000000   0.000000" 
 n="                        4" 
 l="                        0" 
 m="                        0" 
 z="                        1" 
 P="false" 
>
<data>
  0.000000000E+00
  0.000000000E+00
  0.000000000E+00
  0.000000000E+00
  0.000000000E+00
  0.000000000E+00
  0.000000000E+00
  0.000000000E+00
  0.000000000E+00
  0.000000000E+00
  0.000000000E+00
  0.000000000E+00
  0.000000000E+00
  0.000000000E+00
  0.000000000E+00
  0.000000000E+00
  0.000000000E+00
  0.000000000E+00
  0.000000000E+00
  0.000000000E+00
  0.000000000E+00
  0.000000000E+00
  0.000000000E+00
  0.000000000E+00
  0.000000000E+00
  0.000000000E+00
  0.000000000E+00
  0.000000000E+00
  0.000000000E+00
  0.000000000E+00
  0.000000000E+00
  0.000000000E+00
  0.000000000E+00
  0.000000000E+00
  0.000000000E+00
  0.000000000E+00
  0.000000000E+00
  0.000000000E+00
  0.000000000E+00
  0.000000000E+00
  0.000000000E+00
  0.000000000E+00
  0.000000000E+00
  0.000000000E+00
  0.000000000E+00
  0.000000000E+00
  0.000000000E+00
  0.000000000E+00
  0.000000000E+00
  0.000000000E+00
  0.000000000E+00
  0.000000000E+00
  0.000000000E+00
  0.000000000E+00
  0.000000000E+00
  0.000000000E+00
  0.000000000E+00
  0.000000000E+00
  0.000000000E+00
  0.000000000E+00
  0.000000000E+00
  0.000000000E+00
  0.000000000E+00
  0.000000000E+00
  0.000000000E+00
  0.000000000E+00
  0.000000000E+00
  0.000000000E+00
  0.000000000E+00
  0.000000000E+00
  0.000000000E+00
  0.000000000E+00
  0.624012226E-11
  0.104460386E-08
  0.706511677E-07
  0.241798609E-05
  0.426572573E-04
  0.398013462E-03
  0.204696437E-02
  0.620216905E-02
  0.122525686E-01
  0.180075944E-01
  0.224043495E-01
  0.257325047E-01
  0.284215072E-01
  0.306966502E-01
  0.326715823E-01
  0.344141229E-01
  0.359705977E-01
  0.373722131E-01
  0.386474643E-01
  0.398088514E-01
  0.408834975E-01
  0.418659767E-01
  0.427936908E-01
  0.436388525E-01
  0.444557073E-01
  0.451996491E-01
  0.459221756E-01
  0.466070722E-01
  0.472353064E-01
  0.478985035E-01
  0.484490624E-01
  0.490819076E-01
  0.496252015E-01
  0.501734495E-01
  0.507784291E-01
  0.512517618E-01
  0.518702653E-01
  0.523970526E-01
  0.529301087E-01
  0.535792645E-01
  0.540871155E-01
  0.547544090E-01
  0.553957389E-01
  0.560230797E-01
  0.568093110E-01
  0.575197646E-01
  0.583738190E-01
  0.592865402E-01
  0.602502597E-01
  0.613956465E-01
  0.626133656E-01
  0.640709768E-01
  0.657345806E-01
  0.677744136E-01
  0.703486512E-01
  0.739215105E-01
  0.789291044E-01
  0.845737119E-01
  0.881118607E-01
  0.880698599E-01
  0.858163987E-01
  0.830263219E-01
  0.802912602E-01
  0.777202343E-01
  0.753274195E-01
  0.731290111E-01
  0.711420974E-01
  0.693892293E-01
  0.678989220E-01
  0.667070378E-01
  0.658599593E-01
  0.654188297E-01
  0.654625422E-01
  0.660452043E-01
  0.668896159E-01
  0.664299600E-01
  0.612748408E-01
  0.497136468E-01
  0.366143924E-01
  0.296030000E-01
  0.289808169E-01
  0.282614914E-01
  0.257069820E-01
  0.263002511E-01
  0.344837983E-01
  0.462004368E-01
  0.466251791E-01
  0.301647714E-01
  0.122323413E-01
  0.370337824E-02
  0.179312709E-02
  0.219499325E-02
  0.289392982E-02
  0.369642177E-02
  0.524023708E-02
  0.642406910E-02
  0.503846191E-02
  0.344624524E-02
  0.440852687E-02
  0.525941402E-02
  0.441398031E-02
  0.330552383E-02
  0.285180855E-02
  0.294684833E-02
  0.329761431E-02
  0.370833301E-02
  0.407534176E-02
  0.434469906E-02
  0.448549406E-02
  0.449236074E-02
  0.438004203E-02
  0.421149969E-02
  0.401952885E-02
  0.383670074E-02
  0.367471317E-02
  0.350344173E-02
  0.336473789E-02
  0.323087324E-02
  0.307692972E-02
  0.298723010E-02
  0.285569395E-02
  0.273439717E-02
  0.267390651E-02
  0.254765670E-02
  0.246175966E-02
  0.240942111E-02
  0.230794884E-02
  0.224321101E-02
  0.218951402E-02
  0.215666013E-02
  0.242274935E-02
  0.449690331E-02
  0.115773711E-01
  0.239212151E-01
  0.353599430E-01
  0.409429929E-01
  0.415375260E-01
  0.404439541E-01
  0.388285429E-01
  0.365629696E-01
  0.348144695E-01
  0.336594901E-01
  0.318232434E-01
  0.298719319E-01
  0.290126163E-01
  0.284635694E-01
  0.270507298E-01
  0.254389161E-01
  0.248128358E-01
  0.247613550E-01
  0.240782101E-01
  0.227968077E-01
  0.218021997E-01
  0.215637845E-01
  0.216327854E-01
  0.211375772E-01
  0.199885389E-01
  0.189897065E-01
  0.188278474E-01
  0.190769397E-01
  0.187854272E-01
  0.179196059E-01
  0.170331795E-01
  0.165111769E-01
  0.166548615E-01
  0.168819149E-01
  0.163957225E-01
  0.154817788E-01
  0.147757961E-01
  0.145348874E-01
  0.146752165E-01
  0.147299333E-01
  0.143651701E-01
  0.136355269E-01
  0.128004332E-01
  0.124159698E-01
  0.127716351E-01
  0.129930577E-01
  0.124455639E-01
  0.117111857E-01
  0.111668289E-01
  0.107467423E-01
  0.107549214E-01
  0.109927879E-01
  0.107571385E-01
  0.102013011E-01
  0.976128626E-02
  0.922983135E-02
  0.877944896E-02
  0.894135523E-02
  0.927365903E-02
  0.902685203E-02
  0.839790596E-02
  0.780271722E-02
  0.731199996E-02
  0.723505382E-02
  0.765474633E-02
  0.786549326E-02
  0.810053147E-02
  0.996248565E-02
  0.138598842E-01
  0.182961173E-01
  0.221485482E-01
  0.243080659E-01
  0.251259347E-01
  0.261803536E-01
  0.263229114E-01
  0.249102966E-01
  0.247107969E-01
  0.264559739E-01
  0.269737106E-01
  0.254392939E-01
  0.246358786E-01
  0.266974948E-01
  0.287276345E-01
  0.273408335E-01
  0.243955335E-01
  0.240094662E-01
  0.278636800E-01
  0.312553443E-01
  0.296050190E-01
  0.252568432E-01
  0.235435713E-01
  0.276730888E-01
  0.330224502E-01
  0.323358924E-01
  0.274954127E-01
  0.253233048E-01
  0.289490455E-01
  0.339649067E-01
  0.340672294E-01
  0.311578063E-01
  0.304832609E-01
  0.313626728E-01
  0.322783274E-01
  0.347147614E-01
  0.369828847E-01
  0.361803683E-01
  0.345274760E-01
  0.341179585E-01
  0.343746744E-01
  0.360236437E-01
  0.383263809E-01
  0.385452239E-01
  0.369156416E-01
  0.352294207E-01
  0.340499008E-01
  0.339689110E-01
  0.348517038E-01
  0.353763007E-01
  0.348444861E-01
  0.330717149E-01
  0.308580759E-01
  0.295990198E-01
  0.291408723E-01
  0.289960603E-01
  0.289480586E-01
  0.286703758E-01
  0.273140900E-01
  0.252002828E-01
  0.239464935E-01
  0.235034283E-01
  0.230984937E-01
  0.228542081E-01
  0.225128646E-01
  0.217218726E-01
  0.208145360E-01
  0.195279217E-01
  0.180229656E-01
  0.177358953E-01
  0.180794444E-01
  0.177719226E-01
  0.170841584E-01
  0.163960686E-01
  0.158718265E-01
  0.151060804E-01
  0.137673471E-01
  0.126756289E-01
  0.130070341E-01
  0.141792189E-01
  0.140558726E-01
  0.125940182E-01
  0.115229947E-01
  0.107626543E-01
  0.983646846E-02
  0.966316192E-02
  0.104223014E-01
  0.108769112E-01
  0.103467854E-01
  0.958185646E-02
  0.897260944E-02
  0.787017388E-02
  0.672581100E-02
  0.688422160E-02
  0.792991622E-02
  0.847858740E-02
  0.819511401E-02
  0.732022381E-02
  0.634046197E-02
  0.544015390E-02
  0.478534024E-02
  0.513367685E-02
  0.599543016E-02
  0.633837689E-02
  0.614749933E-02
  0.539084169E-02
  0.438689175E-02
  0.346920219E-02
  0.246252063E-02
  0.213004484E-02
  0.275388417E-02
  0.329249785E-02
  0.328784546E-02
  0.289317367E-02
  0.221246954E-02
  0.133222658E-02
  0.488347443E-03
  0.325087955E-03
  0.853113685E-03
  0.943560709E-03
 -0.681684103E-04
 -0.106900680E-02
 -0.121205877E-02
 -0.100209511E-02
 -0.170870506E-02
 -0.440255529E-02
 -0.655719369E-02
 -0.571322122E-02
 -0.371704085E-02
 -0.302263089E-02
 -0.664086406E-02
 -0.134733714E-01
 -0.153347112E-01
 -0.115358331E-01
 -0.103872716E-01
 -0.156267454E-01
 -0.240586340E-01
 -0.290324665E-01
 -0.267830848E-01
 -0.221035879E-01
 -0.209222011E-01
 -0.230726524E-01
 -0.252345702E-01
 -0.253197444E-01
 -0.236422502E-01
 -0.221568213E-01
 -0.218698200E-01
 -0.215462726E-01
 -0.202249148E-01
 -0.192542272E-01
 -0.194869575E-01
 -0.201585176E-01
 -0.204459182E-01
 -0.197246624E-01
 -0.178626944E-01
 -0.160264733E-01
 -0.161892661E-01
 -0.164539042E-01
 -0.153042970E-01
 -0.144984586E-01
 -0.145376399E-01
 -0.150264165E-01
 -0.147284192E-01
 -0.133815956E-01
 -0.118629751E-01
 -0.107382635E-01
 -0.108069576E-01
 -0.110416270E-01
 -0.100312298E-01
 -0.927554642E-02
 -0.949211932E-02
 -0.919384431E-02
 -0.853551467E-02
 -0.792380106E-02
 -0.692883662E-02
 -0.595984823E-02
 -0.528426052E-02
 -0.499410767E-02
 -0.503288704E-02
 -0.449952038E-02
 -0.349454736E-02
 -0.331350391E-02
 -0.359352650E-02
 -0.271922449E-02
 -0.138482093E-02
 -0.990477244E-03
 -0.871849783E-03
 -0.141006034E-03
  0.432177063E-03
  0.217191922E-03
  0.447905362E-05
  0.337910578E-03
  0.511000577E-03
  0.134489091E-03
  0.109871568E-04
  0.381522684E-03
  0.880248257E-03
  0.100677919E-02
  0.582564549E-03
  0.483537000E-03
  0.772351668E-03
  0.760614693E-03
  0.411218753E-03
 -0.828853670E-04
 -0.891841575E-04
  0.271467689E-03
  0.387123504E-03
  0.224800028E-03
  0.357976249E-04
  0.202378658E-03
  0.569234583E-03
  0.538521897E-03
  0.788053021E-04
 -0.254585824E-03
 -0.112395042E-03
  0.123484179E-03
  0.548208383E-04
 -0.123237639E-03
 -0.161601130E-03
  0.120403186E-03
  0.461684751E-03
  0.456175082E-03
  0.289569451E-03
  0.283780348E-03
  0.405674110E-03
  0.364324399E-03
  0.190906766E-03
  0.230047978E-03
</data>
</orbital>
<orbital 
 index="                        2" 
 atom_index="                        1" 
 species="Fe" 
 Z="                       26" 
 position="   0.000000   0.000000   0.000000" 
 n="                        4" 
 l="                        0" 
 m="                        0" 
 z="                        2" 
 P="false" 
>
<data>
  0.000000000E+00
  0.000000000E+00
  0.000000000E+00
  0.000000000E+00
  0.000000000E+00
  0.000000000E+00
  0.000000000E+00
  0.000000000E+00
  0.000000000E+00
  0.000000000E+00
  0.000000000E+00
  0.000000000E+00
  0.000000000E+00
  0.000000000E+00
  0.000000000E+00
  0.000000000E+00
  0.000000000E+00
  0.000000000E+00
  0.000000000E+00
  0.000000000E+00
  0.000000000E+00
  0.000000000E+00
  0.000000000E+00
  0.000000000E+00
  0.000000000E+00
  0.000000000E+00
  0.000000000E+00
  0.000000000E+00
  0.000000000E+00
  0.000000000E+00
  0.000000000E+00
  0.000000000E+00
  0.000000000E+00
  0.000000000E+00
  0.000000000E+00
  0.000000000E+00
  0.000000000E+00
  0.000000000E+00
  0.000000000E+00
  0.000000000E+00
  0.000000000E+00
  0.000000000E+00
  0.000000000E+00
  0.000000000E+00
  0.000000000E+00
  0.000000000E+00
  0.000000000E+00
  0.000000000E+00
  0.000000000E+00
  0.000000000E+00
  0.000000000E+00
  0.000000000E+00
  0.000000000E+00
  0.000000000E+00
  0.000000000E+00
  0.000000000E+00
  0.000000000E+00
  0.000000000E+00
  0.000000000E+00
  0.000000000E+00
  0.000000000E+00
  0.000000000E+00
  0.000000000E+00
  0.000000000E+00
  0.000000000E+00
  0.000000000E+00
  0.000000000E+00
  0.000000000E+00
  0.000000000E+00
  0.000000000E+00
  0.000000000E+00
  0.000000000E+00
  0.198056040E-11
  0.332711719E-09
  0.225379287E-07
  0.772882463E-06
  0.136726838E-04
  0.128082786E-03
  0.662650017E-03
  0.202590964E-02
  0.405554774E-02
  0.606779696E-02
  0.771067095E-02
  0.905628704E-02
  0.102276324E-01
  0.112881807E-01
  0.122686319E-01
  0.131865617E-01
  0.140536686E-01
  0.148773274E-01
  0.156648011E-01
  0.164180120E-01
  0.171448101E-01
  0.178412680E-01
  0.185196510E-01
  0.191683365E-01
  0.198059278E-01
  0.204154828E-01
  0.210139003E-01
  0.215960773E-01
  0.221522113E-01
  0.227168399E-01
  0.232350623E-01
  0.237753816E-01
  0.242789774E-01
  0.247744174E-01
  0.252832715E-01
  0.257382539E-01
  0.262315652E-01
  0.266879514E-01
  0.271333291E-01
  0.276074191E-01
  0.280267484E-01
  0.284814143E-01
  0.289204245E-01
  0.293400296E-01
  0.297943487E-01
  0.302157192E-01
  0.306594516E-01
  0.311102577E-01
  0.315540744E-01
  0.320346848E-01
  0.325121484E-01
  0.330358567E-01
  0.335856453E-01
  0.342077498E-01
  0.349237837E-01
  0.358396312E-01
  0.370374877E-01
  0.383699082E-01
  0.392682153E-01
  0.394193618E-01
  0.390673229E-01
  0.385396008E-01
  0.379426985E-01
  0.372929264E-01
  0.365812998E-01
  0.357989175E-01
  0.349325945E-01
  0.339661360E-01
  0.328791186E-01
  0.316456132E-01
  0.302335482E-01
  0.286043421E-01
  0.267151339E-01
  0.245263728E-01
  0.220037346E-01
  0.190293892E-01
  0.151998059E-01
  0.100238393E-01
  0.388737961E-02
 -0.985871985E-03
 -0.179538102E-02
  0.122734676E-02
  0.484317955E-02
  0.610855992E-02
  0.345659715E-02
 -0.207936633E-02
 -0.491810117E-02
 -0.160719713E-02
  0.360483057E-02
  0.704239952E-02
  0.869953937E-02
  0.861931750E-02
  0.728446110E-02
  0.632722844E-02
  0.793239036E-02
  0.142531859E-01
  0.253417187E-01
  0.369214794E-01
  0.429117526E-01
  0.419233790E-01
  0.376616622E-01
  0.334646105E-01
  0.303038411E-01
  0.280124484E-01
  0.262951391E-01
  0.249530428E-01
  0.238858864E-01
  0.230572606E-01
  0.224564895E-01
  0.220779579E-01
  0.218735066E-01
  0.217894581E-01
  0.217350630E-01
  0.216892302E-01
  0.216414114E-01
  0.215636911E-01
  0.215018149E-01
  0.214108303E-01
  0.213122207E-01
  0.212106238E-01
  0.211043689E-01
  0.209620105E-01
  0.208403793E-01
  0.207232394E-01
  0.205261707E-01
  0.204106772E-01
  0.202717462E-01
  0.200325917E-01
  0.199333136E-01
  0.197722655E-01
  0.196061700E-01
  0.200595507E-01
  0.217552184E-01
  0.248099319E-01
  0.279323068E-01
  0.295064447E-01
  0.297342459E-01
  0.296183740E-01
  0.292312446E-01
  0.285086447E-01
  0.280431336E-01
  0.275804363E-01
  0.268046002E-01
  0.261305943E-01
  0.256596288E-01
  0.250473966E-01
  0.243653607E-01
  0.237177420E-01
  0.230317145E-01
  0.225279362E-01
  0.220435209E-01
  0.212767210E-01
  0.204851327E-01
  0.200608454E-01
  0.196440255E-01
  0.189293405E-01
  0.182653177E-01
  0.177406782E-01
  0.171439851E-01
  0.166762906E-01
  0.162864094E-01
  0.157278256E-01
  0.149917015E-01
  0.145195434E-01
  0.143025517E-01
  0.137690902E-01
  0.132698638E-01
  0.128931847E-01
  0.123392366E-01
  0.118747142E-01
  0.115780453E-01
  0.113363066E-01
  0.109029454E-01
  0.103396824E-01
  0.100064192E-01
  0.974522186E-02
  0.934011591E-02
  0.901832115E-02
  0.889343095E-02
  0.845909930E-02
  0.785264493E-02
  0.775642044E-02
  0.761605870E-02
  0.709784564E-02
  0.692340884E-02
  0.683351997E-02
  0.630341523E-02
  0.589941416E-02
  0.588340494E-02
  0.566854855E-02
  0.526248319E-02
  0.515819063E-02
  0.499343497E-02
  0.449980536E-02
  0.427092997E-02
  0.424053694E-02
  0.395250946E-02
  0.367956304E-02
  0.341189321E-02
  0.253171213E-02
  0.121233286E-02
  0.180836917E-03
 -0.404990478E-03
 -0.256301891E-03
  0.463940816E-03
  0.889257048E-03
  0.132665809E-02
  0.209630311E-02
  0.232117885E-02
  0.197758563E-02
  0.213791749E-02
  0.288300826E-02
  0.327231863E-02
  0.270878332E-02
  0.213693134E-02
  0.260102890E-02
  0.359235788E-02
  0.391639129E-02
  0.304007326E-02
  0.228857530E-02
  0.295660014E-02
  0.432115027E-02
  0.481446219E-02
  0.354782947E-02
  0.207894405E-02
  0.256475975E-02
  0.416547874E-02
  0.487060151E-02
  0.368520202E-02
  0.192918243E-02
  0.187597133E-02
  0.279917011E-02
  0.300366862E-02
  0.279363279E-02
  0.230020081E-02
  0.131425477E-02
  0.570142901E-03
  0.441310302E-03
  0.630889423E-03
  0.810663939E-03
  0.550994477E-03
 -0.436626492E-03
 -0.167322386E-02
 -0.203391301E-02
 -0.149380938E-02
 -0.105990726E-02
 -0.130287476E-02
 -0.206156488E-02
 -0.273003263E-02
 -0.293230680E-02
 -0.268174510E-02
 -0.234319300E-02
 -0.232062784E-02
 -0.250850041E-02
 -0.257861274E-02
 -0.260879679E-02
 -0.276974370E-02
 -0.292556836E-02
 -0.285711246E-02
 -0.262102396E-02
 -0.235187766E-02
 -0.211209308E-02
 -0.213845209E-02
 -0.255667873E-02
 -0.297524703E-02
 -0.285290008E-02
 -0.240491430E-02
 -0.204867079E-02
 -0.178086328E-02
 -0.174706964E-02
 -0.208229487E-02
 -0.253240807E-02
 -0.266423396E-02
 -0.231644228E-02
 -0.182153947E-02
 -0.149178805E-02
 -0.142209160E-02
 -0.162111468E-02
 -0.189996184E-02
 -0.209243837E-02
 -0.206001589E-02
 -0.182389871E-02
 -0.156881134E-02
 -0.123425194E-02
 -0.984049714E-03
 -0.112970388E-02
 -0.152058568E-02
 -0.181333481E-02
 -0.177269194E-02
 -0.146367785E-02
 -0.109175089E-02
 -0.771469439E-03
 -0.711840269E-03
 -0.967300800E-03
 -0.123882754E-02
 -0.134587361E-02
 -0.131674549E-02
 -0.114480529E-02
 -0.872834794E-03
 -0.606046793E-03
 -0.485254345E-03
 -0.610057137E-03
 -0.825201198E-03
 -0.100857454E-02
 -0.111281382E-02
 -0.909057717E-03
 -0.281000083E-03
  0.747172208E-03
  0.204693900E-02
  0.332766526E-02
  0.443242245E-02
  0.559995367E-02
  0.696116796E-02
  0.806122191E-02
  0.895665795E-02
  0.105970608E-01
  0.124970388E-01
  0.131207640E-01
  0.131192378E-01
  0.143202201E-01
  0.171817819E-01
  0.191711127E-01
  0.190613538E-01
  0.188506656E-01
  0.205354510E-01
  0.254108844E-01
  0.299831324E-01
  0.299588482E-01
  0.272103024E-01
  0.260888297E-01
  0.334027795E-01
  0.471439446E-01
  0.510439173E-01
  0.442304237E-01
  0.436279039E-01
  0.563138247E-01
  0.745442667E-01
  0.858170191E-01
  0.830603248E-01
  0.736852358E-01
  0.703167525E-01
  0.750777905E-01
  0.801062581E-01
  0.799463191E-01
  0.762707197E-01
  0.738519432E-01
  0.743554608E-01
  0.739845420E-01
  0.706897228E-01
  0.685884842E-01
  0.695050743E-01
  0.709912867E-01
  0.717012369E-01
  0.705932331E-01
  0.668943290E-01
  0.633176930E-01
  0.643595162E-01
  0.652893996E-01
  0.623199436E-01
  0.601079600E-01
  0.611314360E-01
  0.629599398E-01
  0.619886343E-01
  0.591731462E-01
  0.562761553E-01
  0.542736016E-01
  0.548860308E-01
  0.554878151E-01
  0.531265440E-01
  0.513439955E-01
  0.521122457E-01
  0.524067190E-01
  0.513656059E-01
  0.494264676E-01
  0.475013314E-01
  0.460681051E-01
  0.445138964E-01
  0.439755288E-01
  0.445819307E-01
  0.433180351E-01
  0.408664144E-01
  0.409962853E-01
  0.423602656E-01
  0.400804825E-01
  0.362488666E-01
  0.357816970E-01
  0.360559312E-01
  0.333107725E-01
  0.311446075E-01
  0.318110996E-01
  0.318624577E-01
  0.299387598E-01
  0.283197291E-01
  0.287792078E-01
  0.287578515E-01
  0.267011113E-01
  0.243807247E-01
  0.234793215E-01
  0.240384947E-01
  0.235115891E-01
  0.219216672E-01
  0.211969668E-01
  0.213688740E-01
  0.219896495E-01
  0.213908594E-01
  0.197626045E-01
  0.188895522E-01
  0.186361403E-01
  0.185832285E-01
  0.175753392E-01
  0.158962185E-01
  0.155032275E-01
  0.162476562E-01
  0.167751404E-01
  0.158603983E-01
  0.144465520E-01
  0.142992832E-01
  0.147522356E-01
  0.147991288E-01
  0.135551422E-01
  0.115713538E-01
  0.111047129E-01
  0.121141594E-01
  0.126032550E-01
  0.115035762E-01
  0.100717368E-01
  0.102011039E-01
  0.112784332E-01
</data>
</orbital>
<orbital 
 index="                        3" 
 atom_index="                        1" 
 species="Fe" 
 Z="                       26" 
 position="   0.000000   0.000000   0.000000" 
 n="                        3" 
 l="                        2" 
 m="                       -2" 
 z="                        1" 
 P="false" 
>
<data>
  0.000000000E+00
  0.000000000E+00
  0.000000000E+00
  0.000000000E+00
  0.000000000E+00
  0.000000000E+00
  0.000000000E+00
  0.000000000E+00
  0.000000000E+00
  0.000000000E+00
  0.000000000E+00
  0.000000000E+00
  0.000000000E+00
  0.000000000E+00
  0.000000000E+00
  0.000000000E+00
  0.000000000E+00
  0.000000000E+00
  0.000000000E+00
  0.000000000E+00
  0.000000000E+00
  0.000000000E+00
  0.000000000E+00
  0.000000000E+00
  0.000000000E+00
  0.000000000E+00
  0.000000000E+00
  0.000000000E+00
  0.000000000E+00
  0.000000000E+00
  0.000000000E+00
  0.000000000E+00
  0.000000000E+00
  0.000000000E+00
  0.000000000E+00
  0.000000000E+00
  0.000000000E+00
  0.000000000E+00
  0.000000000E+00
  0.000000000E+00
  0.000000000E+00
  0.000000000E+00
  0.000000000E+00
  0.000000000E+00
  0.000000000E+00
  0.000000000E+00
  0.000000000E+00
  0.000000000E+00
  0.000000000E+00
  0.000000000E+00
  0.000000000E+00
  0.000000000E+00
  0.000000000E+00
  0.000000000E+00
  0.000000000E+00
  0.000000000E+00
  0.000000000E+00
  0.000000000E+00
  0.000000000E+00
  0.000000000E+00
  0.000000000E+00
  0.000000000E+00
  0.000000000E+00
  0.000000000E+00
  0.000000000E+00
  0.000000000E+00
  0.000000000E+00
  0.000000000E+00
  0.000000000E+00
  0.000000000E+00
  0.000000000E+00
  0.000000000E+00
  0.890170518E-18
  0.540950686E-15
  0.513749606E-13
  0.247916524E-11
  0.647959167E-10
  0.951557947E-09
  0.824401300E-08
  0.449374114E-07
  0.166764337E-06
  0.459109205E-06
  0.101602369E-05
  0.192726471E-05
  0.327939794E-05
  0.516011334E-05
  0.766097719E-05
  0.108791021E-04
  0.149183925E-04
  0.198905789E-04
  0.259165900E-04
  0.331268606E-04
  0.416641872E-04
  0.516818303E-04
  0.633499438E-04
  0.768501400E-04
  0.923838337E-04
  0.110173546E-03
  0.130447421E-03
  0.153493940E-03
  0.179559935E-03